[Molden Format]
[FREQ]
-553.1
428.9
475.8
515.1
814.2
1218.4
1350.1
2734.6
2779.1
       
[FR-COORD]
C -0.638916 -0.858691 0.0188973
O 1.88878 -0.858691 0.0188973
O -1.43638 1.50309 0.0188973
H 2.77053 -2.40713 0.370575
H -2.33929 2.41337 -1.19657

[FR-NORM-COORD]
Vibration 1
0.0124722 0.034582 0.0903289
0.0164406 -0.000566918 -0.0470542
-0.110171 -0.0780457 -0.00113384
0.0844708 0.0576366 -0.0287238
1.25308 0.776299 -0.283648
Vibration 2
-0.0289128 0.00283459 -0.027401
-0.0168186 0.000188973 -0.0653845
0.041196 -0.0462983 -0.0105825
0.0721875 0.324466 1.02914
-0.111872 0.374166 0.504368
Vibration 3
-0.00642507 0.076156 0.0574477
0.0417629 -0.00888171 0.0512116
-0.0102045 -0.0699199 -0.109982
-0.113195 -0.228279 -0.526667
-0.309726 0.57202 0.774788
Vibration 4
-0.146454 -0.200689 0.0298577
-0.188217 0.192941 0.0319364
0.256247 -0.0769118 -0.0300466
0.364906 0.439172 -0.50021
0.300277 0.109982 0.114139
Vibration 5
0.0818251 0.0294797 -0.0124722
-0.0587705 -0.146265 0.0351489
-0.0644397 0.0746442 -0.0153068
1.12458 0.687293 -0.257192
-0.145698 0.0971319 0.0920297
Vibration 6
-0.436716 -0.310293 0.0128501
0.378512 -0.00869274 0.00359048
-0.0731324 0.217885 -0.0145509
0.403645 0.0449755 -0.0179524
-0.0472432 0.332781 0.0387394
Vibration 7
-0.306136 0.372087 -0.0359048
0.114517 -0.0417629 0.00925966
0.0903289 -0.223555 0.041385
0.360938 0.274577 -0.0786126
0.0326923 -0.495675 -0.298199
Vibration 8
-0.013795 0.0102045 -0.00982658
-0.00377945 0.0100155 -0.00321253
-0.0442196 0.0521564 -0.0517785
0.154391 -0.195965 0.0527234
0.771764 -0.912927 0.935603
Vibration 9
0.0124722 -0.0173855 0.00113384
0.047999 -0.0659514 0.0147399
-0.00888171 0.013606 -0.00812582
-0.902722 1.18826 -0.268908
0.130958 -0.151934 0.1508
