 *******************************************************************************
 ** Site#:  999         For non-commercial use only           Version 21.129  **
 *******************************************************************************
 ** Cite this program as: MOPAC2016, Version: 21.129 , James J. P. Stewart,   **
 ** Stewart Computational Chemistry, web-site: HTTP://OpenMOPAC.net.          **
 *******************************************************************************
 **                                                                           **
 **                                MOPAC2016                                  **
 **                                                                           **
 *******************************************************************************

                              PM7 CALCULATION RESULTS

 *******************************************************************************
 *  CALCULATION DONE:                                Sun Nov 20 12:23:21 2022  *
 *  PM7        - The PM7 Hamiltonian to be used
 *
 *
 *
 *                 CHARGE ON SYSTEM = 0
 *
 *
 *
 *  PRECISE    - TIGHTER CRITERIA TO BE USED
 *  TS         - USE EF ROUTINE FOR TS SEARCH
 *  INT        - INTERNAL COORDINATE SYSTEM TO BE USED
 *  THREADS=1  - MULTI-THREADING NOT USED
 *  T=         - A TIME OF 500.0 SECONDS REQUESTED
 *  DUMP=N     - RESTART FILE WRITTEN EVERY 7200.0 SECONDS REQUESTED
 *  CYCLES=    - DO A MAXIMUM OF 1000 STEPS
 *  DDMAX=     - MAXIMUM TRUST RADIUS  0.200 ANG/RAD
 *  DENOUT     - SAVE DENSITY MATRIX FOR USE LATER
 *******************************************************************************
int ts   pm7 threads=1 charge=0 precise cycles=1000 t=500 ddmax=0.2 denout
 title
 title
  ATOM    CHEMICAL      BOND LENGTH      BOND ANGLE     TWIST ANGLE 
 NUMBER    SYMBOL       (ANGSTROMS)      (DEGREES)       (DEGREES) 
   (I)                     NA:I           NB:NA:I       NC:NB:NA:I       NA    NB    NC 
     1       C          0.00000000       0.0000000       0.0000000        0     0     0
     2       O          1.33462249  *    0.0000000       0.0000000        1     0     0
     3       O          1.33100647  *  108.5852150  *    0.0000000        1     2     0
     4       H          0.96236406  *  119.0517245  *  167.7901324  *     2     1     3
     5       H          0.94691919  *  123.8699761  *  110.0000000  *     3     1     2
 


          CARTESIAN COORDINATES 

    NO.       ATOM           X           Y           Z

     1         C          0.0000      0.0000      0.0000
     2         O          1.3346      0.0000      0.0000
     3         O         -0.4242      1.2616      0.0000
     4         H          1.8019     -0.8223      0.1779
     5         H         -0.8473      1.6761     -0.7388

 General Reference for PM7:
 "Optimization of Parameters for Semiempirical Methods VI: More Modifications to the 
 NDDO Approximations and Re-optimization of Parameters", J. J. P. Stewart, J. Mol. Mod., 1:32, 19 (2013)
 https://link.springer.com/article/10.1007/s00894-012-1667-x

           Empirical Formula: C H2 O2  =     5 atoms



      MOLECULAR POINT GROUP   :   C1  


      RHF CALCULATION, NO. OF DOUBLY OCCUPIED LEVELS = 9


          Transition state refinement using EF

          HESSIAN CALCULATED NUMERICALLY

 CYCLE:     1 TIME:   0.004 TIME LEFT:  8.33M  GRAD.:     2.743 HEAT: -60.29645
 CYCLE:     2 TIME:   0.004 TIME LEFT:  8.33M  GRAD.:     0.765 HEAT: -60.44281
 CYCLE:     3 TIME:   0.000 TIME LEFT:  8.33M  GRAD.:     0.176 HEAT: -60.45181
 CYCLE:     4 TIME:   0.000 TIME LEFT:  8.33M  GRAD.:     0.011 HEAT: -60.45222

     GRADIENT =  0.01093 IS LESS THAN CUTOFF =  0.05000



 -------------------------------------------------------------------------------
 int ts   pm7 threads=1 charge=0 precise cycles=1000 t=500 ddmax=0.2 denout
 title
 title


     GEOMETRY OPTIMISED USING EIGENVECTOR FOLLOWING (TS).     
     SCF FIELD WAS ACHIEVED                                   


                              PM7 CALCULATION
                                                       MOPAC2016 (Version: 21.129 )
                                                       Sun Nov 20 12:23:22 2022




          FINAL HEAT OF FORMATION =        -60.45222 KCAL/MOL =    -252.93208 KJ/MOL


          TOTAL ENERGY            =       -739.40738 EV
          ELECTRONIC ENERGY       =      -1630.00730 EV  POINT GROUP:     C1  
          CORE-CORE REPULSION     =        890.59992 EV
          COSMO AREA              =         73.86 SQUARE ANGSTROMS
          COSMO VOLUME            =         54.49 CUBIC ANGSTROMS

          GRADIENT NORM           =          0.01093 = 0.00489 PER ATOM
          IONIZATION POTENTIAL    =         10.178125 EV
          HOMO LUMO ENERGIES (EV) =        -10.178  1.644
          NO. OF FILLED LEVELS    =          9
          MOLECULAR WEIGHT        =         46.0256

          MOLECULAR DIMENSIONS (Angstroms)

            Atom       Atom       Distance
            H     5    H     4     3.80871
            O     2    C     1     0.94197
            O     3    H     5     0.46277


          SCF CALCULATIONS        =         14
 
          WALL-CLOCK TIME         =          0.012 SECONDS
          COMPUTATION TIME        =          0.010 SECONDS




  ATOM    CHEMICAL      BOND LENGTH      BOND ANGLE     TWIST ANGLE 
 NUMBER    SYMBOL       (ANGSTROMS)      (DEGREES)       (DEGREES) 
   (I)                     NA:I           NB:NA:I       NC:NB:NA:I       NA    NB    NC 
     1       C          0.00000000       0.0000000       0.0000000        0     0     0
     2       O          1.33754461  *    0.0000000       0.0000000        1     0     0
     3       O          1.31915791  *  108.6562524  *    0.0000000        1     2     0
     4       H          0.96106395  *  119.0447200  *  167.2008669  *     2     1     3
     5       H          0.93494607  *  130.6653401  *  114.9072232  *     3     1     2

                             CARTESIAN COORDINATES

   1    C        0.000000000     0.000000000     0.000000000
   2    O        1.337544605     0.000000000     0.000000000
   3    O       -0.421984982     1.249842499     0.000000000
   4    H        1.804133581    -0.819324812     0.186132994
   5    H       -0.899855990     1.731535082    -0.643222911


           Empirical Formula: C H2 O2  =     5 atoms



      MOLECULAR POINT GROUP   :   C1  


                  EIGENVALUES  
 -30.11809 -29.56637 -22.86346 -18.13102 -16.34415 -14.90122 -13.54846 -12.93780
 -10.17813   1.64436   2.92071   3.91860   6.06193   6.78569


              NET ATOMIC CHARGES AND DIPOLE CONTRIBUTIONS

  ATOM NO.   TYPE          CHARGE      No. of ELECS.   s-Pop       p-Pop       
    1          C           0.623771        3.3762     1.76301     1.61322
    2          O          -0.674844        6.6748     1.79055     4.88429
    3          O          -0.720454        6.7205     1.73528     4.98518
    4          H           0.374623        0.6254     0.62538
    5          H           0.396904        0.6031     0.60310
 DIPOLE           X         Y         Z       TOTAL
 POINT-CHG.    -1.344    -2.498    -0.891     2.974
 HYBRID         0.992     1.348    -0.199     1.686
 SUM           -0.353    -1.150    -1.090     1.623


          ATOMIC ORBITAL ELECTRON POPULATIONS

     Atom    s        px        py        pz   
    1  C   1.76301   0.63230   0.68165   0.29926
    2  O   1.79055   1.50331   1.57279   1.80819
    3  O   1.73528   1.79003   1.55265   1.64250
    4  H   0.62538
    5  H   0.60310
 *******************************************************************************
 ** Site#:  999         For non-commercial use only           Version 21.129  **
 *******************************************************************************
 ** Cite this program as: MOPAC2016, Version: 21.129 , James J. P. Stewart,   **
 ** Stewart Computational Chemistry, web-site: HTTP://OpenMOPAC.net.          **
 *******************************************************************************
 **                                                                           **
 **                                MOPAC2016                                  **
 **                                                                           **
 *******************************************************************************

                              PM7 CALCULATION RESULTS

 *******************************************************************************
 *  CALCULATION DONE:                                Sun Nov 20 12:23:22 2022  *
 *  PM7        - The PM7 Hamiltonian to be used
 *
 *
 *
 *                 CHARGE ON SYSTEM = 0
 *
 *
 *
 *  OLDGEO     - PREVIOUS GEOMETRY TO BE USED
 *  FORCE      - FORCE CALCULATION SPECIFIED
 *  THREADS=1  - MULTI-THREADING NOT USED
 *  T=         - A TIME OF 172800.0 SECONDS REQUESTED
 *  DUMP=N     - RESTART FILE WRITTEN EVERY 7200.0 SECONDS REQUESTED
 *  OLDENS     - INITIAL DENSITY MATRIX READ OFF DISK
 *******************************************************************************
  pm7 threads=1 charge=0 oldgeo oldens force
 title
 freq calc
  ATOM    CHEMICAL      BOND LENGTH      BOND ANGLE     TWIST ANGLE 
 NUMBER    SYMBOL       (ANGSTROMS)      (DEGREES)       (DEGREES) 
   (I)                     NA:I           NB:NA:I       NC:NB:NA:I       NA    NB    NC 
     1       C          0.00000000       0.0000000       0.0000000        0     0     0
     2       O          1.33754461  *    0.0000000       0.0000000        1     0     0
     3       O          1.31915791  *  108.6562524  *    0.0000000        1     2     0
     4       H          0.96106395  *  119.0447200  *  167.2008669  *     2     1     3
     5       H          0.93494607  *  130.6653401  *  114.9072232  *     3     1     2
 


          CARTESIAN COORDINATES 

    NO.       ATOM           X           Y           Z

     1         C          0.0000      0.0000      0.0000
     2         O          1.3375      0.0000      0.0000
     3         O         -0.4220      1.2498      0.0000
     4         H          1.8041     -0.8193      0.1861
     5         H         -0.8999      1.7315     -0.6432

 General Reference for PM7:
 "Optimization of Parameters for Semiempirical Methods VI: More Modifications to the 
 NDDO Approximations and Re-optimization of Parameters", J. J. P. Stewart, J. Mol. Mod., 1:32, 19 (2013)
 https://link.springer.com/article/10.1007/s00894-012-1667-x

           Empirical Formula: C H2 O2  =     5 atoms



      MOLECULAR POINT GROUP   :   C1  


      RHF CALCULATION, NO. OF DOUBLY OCCUPIED LEVELS = 9



          HEAT OF FORMATION =     -60.452218 KCALS/MOLE


          CARTESIAN COORDINATE DERIVATIVES

   NUMBER  ATOM         X            Y            Z

     1       C     -0.001133    -0.001433    -0.009330
     2       O     -0.003392    -0.000468    -0.000379
     3       O      0.005117     0.012509     0.011074
     4       H      0.000250     0.000405     0.001684
     5       H     -0.000843    -0.011014    -0.003051
 


          GRADIENT NORM =   0.02328

          MOLECULAR WEIGHT =   46.03



          ROTATIONAL CONSTANTS IN CM(-1)

          A =    2.92740373   B =    0.37822573   C =    0.34017732



           PRINCIPAL MOMENTS OF INERTIA IN UNITS OF 10**(-40)*GRAM-CM**2

          A =        9.5623   B =       74.0108   C =       82.2888


          ORIENTATION OF MOLECULE IN FORCE CALCULATION

    NO.       ATOM         X         Y         Z

     1          C      -0.3381   -0.4544    0.0100
     2          O       0.9995   -0.4544    0.0100
     3          O      -0.7601    0.7954    0.0100
     4          H       1.4661   -1.2738    0.1961
     5          H      -1.2379    1.2771   -0.6332


    FIRST DERIVATIVES WILL BE USED IN THE CALCULATION OF SECOND DERIVATIVES

          ESTIMATED TIME TO COMPLETE CALCULATION =        0.00 SECONDS

    FOR POINT-GROUP C1   THERE ARE   1 UNIQUE SYMMETRY FUNCTIONS.

 STEP:   1 TIME =     0.00 SECS, INTEGRAL =      0.00 TIME LEFT: 172800.00
 STEP:   2 TIME =     0.00 SECS, INTEGRAL =      0.00 TIME LEFT: 172800.00
 STEP:   3 TIME =     0.00 SECS, INTEGRAL =      0.00 TIME LEFT: 172800.00
 STEP:   4 TIME =     0.00 SECS, INTEGRAL =      0.00 TIME LEFT: 172800.00
 STEP:   5 TIME =     0.00 SECS, INTEGRAL =      0.00 TIME LEFT: 172800.00
 STEP:   6 TIME =     0.00 SECS, INTEGRAL =      0.00 TIME LEFT: 172800.00
 STEP:   7 TIME =     0.00 SECS, INTEGRAL =      0.00 TIME LEFT: 172800.00
 STEP:   8 TIME =     0.00 SECS, INTEGRAL =      0.01 TIME LEFT: 172799.99
 STEP:   9 TIME =     0.00 SECS, INTEGRAL =      0.01 TIME LEFT: 172799.99
 STEP:  10 TIME =     0.00 SECS, INTEGRAL =      0.01 TIME LEFT: 172799.99
 STEP:  11 TIME =     0.00 SECS, INTEGRAL =      0.01 TIME LEFT: 172799.99
 STEP:  12 TIME =     0.00 SECS, INTEGRAL =      0.01 TIME LEFT: 172799.99
 STEP:  13 TIME =     0.00 SECS, INTEGRAL =      0.01 TIME LEFT: 172799.99
 STEP:  14 TIME =     0.00 SECS, INTEGRAL =      0.01 TIME LEFT: 172799.99
 STEP:  15 TIME =     0.00 SECS, INTEGRAL =      0.01 TIME LEFT: 172799.99

(To convert to Hartree/Bohr^2, multiply by (10^(-21) x N x a0^2)/(4.184 x 627.51) =  0.0642)


           FORCE MATRIX IN MILLIDYNES/ANGSTROM


                  C  1       O  2       O  3       H  4       H  5
 ------------------------------------------------------------------
     C    1  10.068778
     O    2   5.461950   8.399133
     O    3   5.580431   1.719227   8.862930
     H    4   1.000057   3.662541   0.121873   4.389912
     H    5   1.022083   0.157185   3.661308   0.055529   4.239222


          HEAT OF FORMATION =     -60.452218 KCALS/MOLE

          ZERO POINT ENERGY      14.748 KCAL/MOL

         NOTE: SYSTEM IS NOT A GROUND STATE, THEREFORE ZERO POINT
         ENERGY IS NOT MEANINGFULL. ZERO POINT ENERGY PRINTED
         DOES NOT INCLUDE THE  1 IMAGINARY FREQUENCIES


           NORMAL COORDINATE ANALYSIS (Total motion = 1 Angstrom)


   Root No.       1         2         3         4         5         6         7         8

                 1 A       2 A       3 A       4 A       5 A       6 A       7 A       8 A   

                -553.1     428.9     475.8     515.1     814.2    1218.4    1350.1    2734.6
  
           1    0.0066   -0.0153   -0.0034   -0.0775    0.0433   -0.2311   -0.1620   -0.0073
           2    0.0183    0.0015    0.0403   -0.1062    0.0156   -0.1642    0.1969    0.0054
           3    0.0478   -0.0145    0.0304    0.0158   -0.0066    0.0068   -0.0190   -0.0052
           4    0.0087   -0.0089    0.0221   -0.0996   -0.0311    0.2003    0.0606   -0.0020
           5   -0.0003    0.0001   -0.0047    0.1021   -0.0774   -0.0046   -0.0221    0.0053
           6   -0.0249   -0.0346    0.0271    0.0169    0.0186    0.0019    0.0049   -0.0017
           7   -0.0583    0.0218   -0.0054    0.1356   -0.0341   -0.0387    0.0478   -0.0234
           8   -0.0413   -0.0245   -0.0370   -0.0407    0.0395    0.1153   -0.1183    0.0276
           9   -0.0006   -0.0056   -0.0582   -0.0159   -0.0081   -0.0077    0.0219   -0.0274
          10    0.0447    0.0382   -0.0599    0.1931    0.5951    0.2136    0.1910    0.0817
          11    0.0305    0.1717   -0.1208    0.2324    0.3637    0.0238    0.1453   -0.1037
          12   -0.0152    0.5446   -0.2787   -0.2647   -0.1361   -0.0095   -0.0416    0.0279
          13    0.6631   -0.0592   -0.1639    0.1589   -0.0771   -0.0250    0.0173    0.4084
          14    0.4108    0.1980    0.3027    0.0582    0.0514    0.1761   -0.2623   -0.4831
          15   -0.1501    0.2669    0.4100    0.0604    0.0487    0.0205   -0.1578    0.4951


   Root No.       9

                 9 A   

                2779.1
  
           1    0.0066
           2   -0.0092
           3    0.0006
           4    0.0254
           5   -0.0349
           6    0.0078
           7   -0.0047
           8    0.0072
           9   -0.0043
          10   -0.4777
          11    0.6288
          12   -0.1423
          13    0.0693
          14   -0.0804
          15    0.0798


           MASS-WEIGHTED COORDINATE ANALYSIS (NORMAL COORDINATES)


   Root No.       1         2         3         4         5         6         7         8

                 1 A       2 A       3 A       4 A       5 A       6 A       7 A       8 A   

                -553.1     428.9     475.8     515.1     814.2    1218.4    1350.1    2734.6
  
           1    0.0264   -0.0759   -0.0166   -0.2609    0.1786   -0.5773   -0.4971   -0.0301
           2    0.0727    0.0073    0.1949   -0.3574    0.0645   -0.4102    0.6043    0.0224
           3    0.1897   -0.0720    0.1473    0.0532   -0.0274    0.0169   -0.0584   -0.0214
           4    0.0398   -0.0512    0.1235   -0.3868   -0.1479    0.5775    0.2149   -0.0096
           5   -0.0014    0.0006   -0.0263    0.3966   -0.3679   -0.0133   -0.0782    0.0254
           6   -0.1142   -0.1981    0.1515    0.0657    0.0885    0.0054    0.0174   -0.0080
           7   -0.2667    0.1245   -0.0304    0.5267   -0.1621   -0.1115    0.1694   -0.1116
           8   -0.1888   -0.1402   -0.2066   -0.1580    0.1877    0.3324   -0.4193    0.1315
           9   -0.0026   -0.0321   -0.3253   -0.0618   -0.0386   -0.0221    0.0776   -0.1305
          10    0.0514    0.0549   -0.0840    0.1882    0.7104    0.1546    0.1699    0.0978
          11    0.0351    0.2466   -0.1694    0.2265    0.4341    0.0172    0.1292   -0.1241
          12   -0.0174    0.7823   -0.3907   -0.2580   -0.1624   -0.0068   -0.0370    0.0333
          13    0.7617   -0.0850   -0.2298    0.1548   -0.0920   -0.0181    0.0154    0.4889
          14    0.4718    0.2845    0.4244    0.0567    0.0614    0.1274   -0.2332   -0.5782
          15   -0.1724    0.3834    0.5748    0.0589    0.0582    0.0148   -0.1403    0.5926


   Root No.       9

                 9 A   

                2779.1
  
           1    0.0274
           2   -0.0380
           3    0.0025
           4    0.1216
           5   -0.1666
           6    0.0374
           7   -0.0224
           8    0.0344
           9   -0.0207
          10   -0.5730
          11    0.7542
          12   -0.1707
          13    0.0831
          14   -0.0964
          15    0.0957


          DESCRIPTION OF VIBRATIONS


 VIBRATION          1    1A          ATOM PAIR     ENERGY CONTRIBUTION    RADIAL
 FREQUENCY          -553.09         O 3 -- H 5        -109.3% (-93.2%)      0.3%
 TRANSITION DIPOLE   1.0872         C 1 -- O 3          -5.6% (-21.1%)     12.4%
 TRAVEL (Ang.)       0.3669         O 2 -- O 3          -1.6% (-11.4%)     14.1%
 REDUCED MASS        0.9055         O 2 -- H 4          -1.3% (-10.3%)      0.4%
 EFFECTIVE MASS      1.6842
 FORCE CONSTANT     -0.1632

 VIBRATION          2    2A          ATOM PAIR     ENERGY CONTRIBUTION    RADIAL
 FREQUENCY           428.94         O 2 -- H 4         +49.9% ( 85.5%)      0.1%
 TRANSITION DIPOLE   1.3765         O 3 -- H 5         +21.2% ( 55.7%)      0.4%
 TRAVEL (Ang.)       0.5268         C 1 -- O 3         +14.4% ( 46.0%)     65.4%
 REDUCED MASS        0.5665         O 2 -- O 3         +12.4% ( 42.5%)     64.6%
 EFFECTIVE MASS      3.4186
 FORCE CONSTANT      0.0614

 VIBRATION          3    3A          ATOM PAIR     ENERGY CONTRIBUTION    RADIAL
 FREQUENCY           475.76         O 3 -- H 5         +45.0% ( 88.3%)      3.0%
 TRANSITION DIPOLE   0.9640         C 1 -- O 3         +22.9% ( 63.1%)     36.7%
 TRAVEL (Ang.)       0.4262         O 2 -- H 4         +12.4% ( 46.4%)      2.0%
 REDUCED MASS        0.7802         C 1 -- O 2         +12.2% ( 46.1%)     28.6%
 EFFECTIVE MASS      5.6746
 FORCE CONSTANT      0.1040

 VIBRATION          4    4A          ATOM PAIR     ENERGY CONTRIBUTION    RADIAL
 FREQUENCY           515.06         O 2 -- O 3         +39.7% (129.4%)     98.1%
 TRANSITION DIPOLE   0.4421         C 1 -- O 2         +22.6% ( 97.7%)      2.7%
 TRAVEL (Ang.)       0.1921         C 1 -- O 3         +16.7% ( 83.8%)      0.6%
 REDUCED MASS        3.5481         O 2 -- H 4         +12.8% ( 73.6%)     28.1%
 EFFECTIVE MASS     17.7217
 FORCE CONSTANT      0.5546

 VIBRATION          5    5A          ATOM PAIR     ENERGY CONTRIBUTION    RADIAL
 FREQUENCY           814.24         O 2 -- H 4         +62.1% ( 94.4%)      6.9%
 TRANSITION DIPOLE   0.8208         C 1 -- O 2         +12.9% ( 43.1%)     34.7%
 TRAVEL (Ang.)       0.2825         O 2 -- O 3         +11.0% ( 39.7%)     34.2%
 REDUCED MASS        1.0378         C 1 -- O 3          +8.5% ( 34.9%)     38.8%
 EFFECTIVE MASS      4.6881
 FORCE CONSTANT      0.4054

 VIBRATION          6    6A          ATOM PAIR     ENERGY CONTRIBUTION    RADIAL
 FREQUENCY          1218.44         C 1 -- O 2         +44.7% ( 88.2%)     89.4%
 TRANSITION DIPOLE   3.3220         C 1 -- O 3         +25.3% ( 66.4%)     39.9%
 TRAVEL (Ang.)       0.1047         O 2 -- O 3         +16.4% ( 53.4%)     97.6%
 REDUCED MASS        5.0512         O 2 -- H 4          +9.5% ( 40.6%)     30.3%
 EFFECTIVE MASS     13.5979
 FORCE CONSTANT      4.4183

 VIBRATION          7    7A          ATOM PAIR     ENERGY CONTRIBUTION    RADIAL
 FREQUENCY          1350.10         C 1 -- O 3         +49.0% ( 85.7%)     92.7%
 TRANSITION DIPOLE   4.3255         C 1 -- O 2         +32.0% ( 69.3%)     51.8%
 TRAVEL (Ang.)       0.0969         O 3 -- H 5          +8.3% ( 35.4%)     99.5%
 REDUCED MASS        5.3144         O 2 -- O 3          +7.3% ( 33.1%)     21.1%
 EFFECTIVE MASS     11.2137
 FORCE CONSTANT      5.7074

 VIBRATION          8    8A          ATOM PAIR     ENERGY CONTRIBUTION    RADIAL
 FREQUENCY          2734.56         O 3 -- H 5         +96.3% ( 98.5%)     98.7%
 TRANSITION DIPOLE   1.9689         O 2 -- H 4          +2.7% ( 16.6%)     98.9%
 TRAVEL (Ang.)       0.1658         O 2 -- O 3          +0.5% (  7.1%)     57.0%
 REDUCED MASS        0.8971         C 1 -- O 3          +0.4% (  6.7%)     55.0%
 EFFECTIVE MASS      1.3427
 FORCE CONSTANT      3.9526

 VIBRATION          9    9A          ATOM PAIR     ENERGY CONTRIBUTION    RADIAL
 FREQUENCY          2779.09         O 2 -- H 4         +96.4% ( 98.3%)     98.4%
 TRANSITION DIPOLE   1.3362         O 3 -- H 5          +2.6% ( 16.3%)     97.1%
 TRAVEL (Ang.)       0.1645         O 2 -- O 3          +0.5% (  6.7%)     84.7%
 REDUCED MASS        0.8966         C 1 -- O 2          +0.4% (  6.2%)     33.3%
 EFFECTIVE MASS      1.3372
 FORCE CONSTANT      4.0801

           FORCE CONSTANT IN INTERNAL COORDINATES (Millidynes/A)

    ATOM   CHEMICAL  BOND LENGTH      BOND ANGLE     TWIST ANGLE
   NUMBER   SYMBOL  FORCE CONSTANT  FORCE CONSTANT  FORCE CONSTANT

      1       C        0.000000        0.000000        0.000000
      2       O        6.816581        0.000000        0.000000
      3       O        7.177376        1.338150        0.000000
      4       H        4.299369        0.405127        0.073880
      5       H        4.175828        0.188731       -0.057357

 **********************
 *                    *
 * JOB ENDED NORMALLY *
 *                    *
 **********************



 TOTAL JOB TIME:             0.04 SECONDS

 == MOPAC DONE ==
