[Molden Format]
[FREQ]
-1540.1
267.2
328.2
682.4
841.0
957.3
2001.8
2385.7
3120.4
       
[FR-COORD]
C 0.0861715 -0.681624 0
O 2.2741 -0.681624 0
O -1.9861 0.876644 0
H -2.80057 2.51296 1.06051
H -2.79736 2.51523 -1.05938

[FR-NORM-COORD]
Vibration 1
-0.0489439 0.0920297 0
-0.0173855 -0.0153068 0
0.0924076 -0.123399 0
-0.303868 0.552178 -0.499644
-0.303868 0.552367 0.499077
Vibration 2
0.0993996 0.226956 0
0.0873053 -0.17839 0
-0.0856046 0.0445975 0
-0.606224 -0.289506 0.0461093
-0.606224 -0.289884 -0.0461093
Vibration 3
0 0 0.155147
0 0 -0.0778567
0 0 -0.0423299
-0.697309 -0.405535 0.0296687
0.697309 0.405535 0.0289128
Vibration 4
0 0 -0.165162
0 0 0.0321253
0 0 0.158737
-0.493218 0.252656 -0.530257
0.492841 -0.253223 -0.530257
Vibration 5
-0.0502667 -0.151556 0.000188973
-0.0791795 0.0599043 0
0.195965 0.0948642 0
-0.627011 -0.325222 -0.0062361
-0.627011 -0.325411 0.00661404
Vibration 6
-0.096754 0.275711 0
-0.154013 -0.0130391 0
0.187272 -0.139273 0
0.31275 -0.433314 0.28327
0.312561 -0.433503 -0.28327
Vibration 7
0.771008 -0.0241885 0
-0.54254 0.00075589 0
-0.0393063 -0.00340151 0
0.0245664 0.16554 -0.209949
0.0243775 0.165162 0.209382
Vibration 8
0 0 0.00793685
0 0 -0.0020787
0 0 -0.0642507
-0.339584 0.692963 0.477912
0.339773 -0.692774 0.47829
Vibration 9
0.0162516 -0.0132281 -0.000188973
-0.00377945 0.00132281 0.000188973
0.020976 -0.0487549 0
-0.233759 0.454479 0.748143
-0.233759 0.454668 -0.747576
