[Molden Format]
[FREQ]
-2929.1
451.4
587.0
906.4
997.5
1345.8
1947.3
2103.3
2635.0
       
[FR-COORD]
C 0.0151178 -0.417629 0
O 2.23555 -0.417629 0
O -1.96739 0.974343 0
H -1.44507 -2.53998 0.000188973
H -2.99238 -1.31922 0.000377945

[FR-NORM-COORD]
Vibration 1
0.0160627 -0.10677 0
0.0124722 0.0162516 0
-0.0534792 -0.0132281 0
0.63816 0.200122 0
-0.178768 1.02177 -0.000188973
Vibration 2
0 0 0.39174
0 0 -0.156847
0 0 -0.0563138
0 0 -0.0719986
0 0 -1.21264
Vibration 3
0.171209 0.489061 0
0.180847 -0.306325 0
-0.347521 -0.076156 0
0.450511 0.2262 0
0.155147 0.0160627 0
Vibration 4
-0.0616051 -0.0338261 0
-0.0510226 -0.0291018 0
0.00132281 0.0933525 0
0.898187 -0.210327 0
0.626255 -0.403457 0
Vibration 5
0 0 -0.142674
0 0 0.0321253
0 0 0.0608492
0 0 0.938249
0 0 -0.715828
Vibration 6
0.0177634 -0.327301 0
0.315962 0.0268341 0
-0.300466 0.254168 0
-0.449377 -0.205224 0
-0.00812582 -0.357158 0
Vibration 7
-0.189917 0.0120942 0
0.110549 -0.00396842 0
0.0478101 -0.0200311 0
0.39363 0.658947 0
-0.64383 -0.421787 0
Vibration 8
0.290073 -0.0886281 0
-0.157225 0.00151178 0
-0.048188 0.0508336 0
0.188784 0.713372 0
-0.383803 -0.488494 0
Vibration 9
-0.0493218 -0.0360938 0
0.0130391 0.00302356 0
-0.00944863 -0.0381725 0
-0.309537 0.875132 0
0.839794 0.11395 0
