[Molden Format]
[FREQ]
-485.5
133.1
162.2
237.0
296.0
1388.0
2018.7
2786.6
2847.8
       
[FR-COORD]
C -0.992106 -1.83398 0.0170075
O 1.17031 -1.83398 0.0170075
O -0.487549 2.81758 0.0170075
H 1.13327 2.57305 0.797464
H -0.149666 3.66815 -1.53937

[FR-NORM-COORD]
Vibration 1
-0.0164406 0.0633058 -0.034582
-0.0239995 0.0287238 0.0107714
0.0459203 -0.147966 0.00718096
0.224877 1.20262 0.179146
-0.376622 -0.0634948 -0.0512116
Vibration 2
0.000188973 -0.082581 -0.00907068
-0.00264562 -0.0470542 0.0377945
0.0190862 0.0289128 -0.0444086
0.142674 0.0831479 -0.292341
-0.407047 1.18902 0.504746
Vibration 3
0.118297 0.629468 -0.0185193
0.126612 -0.463739 0.0188973
-0.186705 -0.0100155 0.00113384
-0.136816 -0.117919 -0.147588
-0.317096 0.134548 0.048188
Vibration 4
0.0232436 -0.181414 -0.0444086
0.0162516 -0.179902 0.0151178
-0.0245664 0.297632 0.0451645
0.089762 0.650822 -0.0663294
-0.234515 -0.356213 -0.359804
Vibration 5
0.00982658 -0.0221098 0.101667
0.00736993 -0.0466762 -0.0736993
-0.0319364 0.0239995 -0.0631168
-0.361127 0.333159 0.743985
0.635704 0.28875 0.217318
Vibration 6
0.00170075 -0.00170075 -0.00264562
0.000566918 -0.00113384 0.00340151
-0.0907068 -0.020787 0.0362827
0.533848 0.291963 -0.663294
0.877022 0.0740773 0.0642507
Vibration 7
1.02064 0.0105825 0.000566918
-0.763449 0.000188973 0.000188973
-0.00075589 -0.00302356 0.00151178
-0.0408181 -0.0735103 -0.02759
0.00944863 -0.00850377 -0.00510226
Vibration 8
0.00245664 -0.000377945 0.000566918
-0.000944863 -0.000377945 -0.000188973
-0.0470542 0.034582 -0.0704868
0.90688 -0.181414 0.470542
-0.17102 -0.356591 0.645341
Vibration 9
-0.00113384 0.000944863 -0.000377945
0.000566918 -0.000188973 0.000188973
0.0377945 0.0175745 -0.0287238
-0.587516 0.205224 -0.473187
-0.00774788 -0.491896 0.933525
