[Molden Format]
[FREQ]
-543.2
354.1
476.5
648.7
881.6
1258.0
1334.3
2721.9
2766.3
       
[FR-COORD]
C -0.606602 -0.865117 0.0253223
O 1.88765 -0.865117 0.0253223
O -1.58926 1.39235 0.0253223
H -0.70638 2.98785 0.00453534
H 3.1995 -1.04577 -1.10965

[FR-NORM-COORD]
Vibration 1
0.0381725 0.0364717 0.0738883
-0.0270231 -0.143241 -0.0196532
-0.00585815 0.0238105 -0.0283459
-0.126801 0.0642507 -0.147021
0.194075 1.39613 0.0270231
Vibration 2
0.0738883 0.0158737 0.027401
-0.0789905 -0.00434637 -0.113006
-0.0147399 0.00548021 0.0372276
-0.152501 0.0532903 -0.218074
0.760804 -0.259648 1.09642
Vibration 3
-0.114517 -0.194075 0.0283459
-0.131714 0.173099 -0.0217318
0.167808 -0.0326923 -0.00888171
0.761938 -0.324466 -0.02759
0.0317474 0.406858 0.175745
Vibration 4
0.0230547 -0.000377945 0.158737
-0.013606 -0.00245664 -0.0655735
-0.00642507 0.00434637 -0.146832
-0.0287238 0.0241885 1.38404
0.0752111 -0.0495108 0.0946753
Vibration 5
0.0453534 -0.0160627 0.00736993
0.110549 -0.0555579 -0.0113384
-0.22998 0.0993996 0.00226767
1.17465 -0.491518 -0.0119053
0.180469 -0.0132281 0.0668963
Vibration 6
0.342418 0.246609 -0.0264562
-0.270609 0.000377945 0.0315584
0.00812582 -0.162705 0.00075589
0.493785 -0.279868 0.00907068
-0.407425 -0.082581 -0.206169
Vibration 7
-0.351111 0.420842 0.0268341
0.148532 -0.0162516 -0.0340151
0.0712427 -0.28516 -0.00377945
0.412338 -0.296309 0.0285349
0.283648 0.0682191 0.251334
Vibration 8
-0.0102045 0.00793685 0.00774788
-0.0704868 0.0096376 0.0489439
0.00869274 0.0100155 -0.000377945
-0.10677 -0.257192 0.00774788
1.20905 -0.149477 -0.869274
Vibration 9
-0.00377945 -0.0222988 0.00283459
-0.0149288 0.0020787 0.00793685
-0.0325033 -0.0712427 0.000377945
0.569563 1.38385 -0.0126612
0.22809 -0.0179524 -0.152501
