[Molden Format]
[FREQ]
375.2
484.6
506.8
852.9
937.9
1239.4
1361.5
2770.3
2783.7
       
[FR-COORD]
C -0.629846 -0.859258 0
O 1.89521 -0.859258 0
O -1.3897 1.54882 0
H 2.68625 -2.51126 0
H -3.20403 1.80299 0

[FR-NORM-COORD]
Vibration 1
0 0 0.000188973
0 0 -0.0959981
0 0 0.0958091
0 0 0.849054
0 0 -0.848865
Vibration 2
0 0 -0.0856046
0 0 -0.0232436
0 0 -0.0232436
0 0 0.878723
0 0 0.878912
Vibration 3
-0.138895 -0.18954 0
-0.15817 0.179335 0
0.218452 -0.096754 0
0.3513 0.472054 0
0.344308 0.477156 0
Vibration 4
-0.0599043 0.0438416 0
0.102801 0.062172 0
-0.0283459 -0.116785 0
-0.667262 -0.418385 0
0.198043 0.762315 0
Vibration 5
0.0171965 0.0234326 0
0.041574 -0.101289 0
-0.109226 0.00925966 0
0.729812 0.3753 0
0.138139 0.808992 0
Vibration 6
0.396276 0.540651 0
-0.384181 -0.0432747 0
0.0742662 -0.379457 0
-0.020787 0.222232 0
0.218074 0.0468652 0
Vibration 7
0.368497 -0.270042 0
-0.165351 0.0430858 0
-0.0908958 0.144753 0
-0.461093 -0.291396 0
0.139084 0.527423 0
Vibration 8
-0.0224877 0.0164406 0
-0.0219208 0.0408181 0
-0.0455424 0.00850377 0
0.487927 -0.737938 0
0.850566 -0.243019 0
Vibration 9
-0.00472431 -0.0062361 0
0.0281569 -0.0408181 0
-0.0474321 0.0145509 0
-0.494919 0.741151 0
0.855857 -0.248688 0
