[Molden Format]
[FREQ]
364.0
562.3
947.7
1119.9
1201.9
1237.3
1839.1
2641.4
2788.3
       
[FR-COORD]
C -0.279302 -0.810126 0
O 1.98232 -0.810126 0
O -1.46756 1.48249 0
H -1.53181 -2.44077 0
H -3.3125 1.42107 0

[FR-NORM-COORD]
Vibration 1
0 0 -0.0529123
0 0 0.062172
0 0 -0.0990216
0 0 -0.230358
0 0 1.44545
Vibration 2
-0.164973 -0.274766 0
-0.167619 0.29064 0
0.279302 -0.103746 0
-0.1011 -0.270798 0
0.294041 0.576177 0
Vibration 3
0 0 -0.306892
0 0 0.0839038
0 0 0.0555579
0 0 1.35777
0 0 0.0856046
Vibration 4
0.00925966 0.172154 0
0.0362827 -0.0230547 0
-0.0374166 -0.196532 0
-0.150989 0.273065 0
0.0585815 1.16067 0
Vibration 5
0.0393063 -0.203901 0
0.0771008 -0.020409 0
-0.129068 0.150233 0
0.403645 -0.437661 0
-0.047999 0.807291 0
Vibration 6
-0.075778 0.190295 0
-0.0854156 -0.0438416 0
0.0646286 -0.0444086 0
1.21434 -0.833369 0
0.0170075 -0.0336371 0
Vibration 7
0.643074 -0.041574 0
-0.479423 -0.0062361 0
-0.034393 0.00340151 0
0.293852 0.353946 0
0.198043 0.185571 0
Vibration 8
-0.0891951 -0.0918407 0
0.00699199 -0.0041574 0
0.00907068 -0.00566918 0
0.964327 1.25705 0
-0.158359 -0.00699199 0
Vibration 9
-0.0408181 0.000188973 0
0.0122832 -0.00113384 0
-0.0888171 0.00302356 0
0.100911 0.0986437 0
1.60116 -0.131336 0
