[Molden Format]
[FREQ]
-2014.8
326.1
472.7
523.3
1076.9
1255.7
1567.0
2471.8
2788.5
       
[FR-COORD]
C -0.374355 -0.765528 0
O 2.01256 -0.765528 0
O -1.56488 1.4464 0
H 0.769496 -2.98539 0.000377945
H -3.41303 1.29975 0.000188973

[FR-NORM-COORD]
Vibration 1
-0.133982 0.0593374 0
-0.00245664 -0.0806913 0
0.00188973 0.0236216 0
1.59058 0.159493 0
0.0166296 0.0364717 0
Vibration 2
0 0 -0.199177
0 0 -0.0126612
0 0 0.0986437
0 0 1.29446
0 0 -0.284782
Vibration 3
0 0 -0.13436
0 0 0.0733214
0 0 -0.0736993
0 0 0.170642
0 0 1.43751
Vibration 4
-0.176122 -0.297632 0
-0.186705 0.279868 0
0.290451 -0.096376 0
0.178957 -0.0340151 0
0.272498 0.665561 0
Vibration 5
0.0130391 0.0784236 0
0.0905179 -0.0317474 0
-0.0956201 -0.123966 0
-0.0536682 0.0589595 0
-0.0196532 1.47777 0
Vibration 6
-0.0727545 0.472809 0
-0.139273 -0.00793685 0
0.201256 -0.342229 0
-0.243019 0.351867 0
0.128879 -0.428212 0
Vibration 7
0.472432 0.0338261 0
-0.354135 -0.0160627 0
-0.0393063 0.00642507 0
0.482258 -0.528367 0
0.131147 0.277034 0
Vibration 8
0.0984547 -0.0944863 0
-0.0608492 -0.0453534 0
-0.0103935 0.0120942 0
-0.0634948 1.62403 -0.000188973
0.0177634 0.0315584 0
Vibration 9
-0.0306136 0.0041574 0
0.0111494 0.00245664 0
-0.0929745 -0.000566918 0
-0.0447865 0.00453534 0
1.70737 -0.0848487 0
