 *******************************************************************************
 ** Site#:  999         For non-commercial use only           Version 21.129  **
 *******************************************************************************
 ** Cite this program as: MOPAC2016, Version: 21.129 , James J. P. Stewart,   **
 ** Stewart Computational Chemistry, web-site: HTTP://OpenMOPAC.net.          **
 *******************************************************************************
 **                                                                           **
 **                                MOPAC2016                                  **
 **                                                                           **
 *******************************************************************************

                              PM7 CALCULATION RESULTS

 *******************************************************************************
 *  CALCULATION DONE:                                Sun Nov 20 12:22:41 2022  *
 *  PM7        - The PM7 Hamiltonian to be used
 *
 *
 *
 *                 CHARGE ON SYSTEM = 0
 *
 *
 *
 *  PRECISE    - TIGHTER CRITERIA TO BE USED
 *  TS         - USE EF ROUTINE FOR TS SEARCH
 *  THREADS=1  - MULTI-THREADING NOT USED
 *  T=         - A TIME OF 500.0 SECONDS REQUESTED
 *  DUMP=N     - RESTART FILE WRITTEN EVERY 7200.0 SECONDS REQUESTED
 *  CYCLES=    - DO A MAXIMUM OF 1000 STEPS
 *  DDMAX=     - MAXIMUM TRUST RADIUS  0.200 ANG/RAD
 *  DENOUT     - SAVE DENSITY MATRIX FOR USE LATER
 *******************************************************************************
ts   pm7 threads=1 charge=0 precise cycles=1000 t=500 ddmax=0.2 denout
 title
 title
   ATOM   CHEMICAL          X               Y               Z
  NUMBER   SYMBOL      (ANGSTROMS)     (ANGSTROMS)     (ANGSTROMS)
 
     1       C          1.04624999  *  -1.22145999  *  -0.03102000  *
     2       O          0.12709127  *  -0.84286862  *   0.53447016  *
     3       O          0.50678998  *   1.32553995  *  -1.01959002  *
     4       H          0.17784464  *   2.12058245  *  -1.43086538  *
     5       H         -0.12185009  *   1.10281027  *  -0.33178559  *
 


          CARTESIAN COORDINATES 

    NO.       ATOM           X           Y           Z

     1         C          1.0462     -1.2215     -0.0310
     2         O          0.1271     -0.8429      0.5345
     3         O          0.5068      1.3255     -1.0196
     4         H          0.1778      2.1206     -1.4309
     5         H         -0.1219      1.1028     -0.3318

 General Reference for PM7:
 "Optimization of Parameters for Semiempirical Methods VI: More Modifications to the 
 NDDO Approximations and Re-optimization of Parameters", J. J. P. Stewart, J. Mol. Mod., 1:32, 19 (2013)
 https://link.springer.com/article/10.1007/s00894-012-1667-x

           Empirical Formula: C H2 O2  =     5 atoms



      MOLECULAR POINT GROUP   :   C1  


      RHF CALCULATION, NO. OF DOUBLY OCCUPIED LEVELS = 9


          Transition state refinement using EF

          HESSIAN CALCULATED NUMERICALLY

 CYCLE:     1 TIME:   0.004 TIME LEFT:  8.33M  GRAD.:     0.334 HEAT: -78.76086
 CYCLE:     2 TIME:   0.000 TIME LEFT:  8.33M  GRAD.:     1.653 HEAT: -78.75750
 CYCLE:     3 TIME:   0.004 TIME LEFT:  8.33M  GRAD.:     0.870 HEAT: -78.75680
 CYCLE:     4 TIME:   0.000 TIME LEFT:  8.33M  GRAD.:     0.975 HEAT: -78.75761
 CYCLE:     5 TIME:   0.000 TIME LEFT:  8.33M  GRAD.:     4.938 HEAT: -78.74911
 CYCLE:     6 TIME:   0.000 TIME LEFT:  8.33M  GRAD.:     0.209 HEAT: -78.75782
 CYCLE:     7 TIME:   0.000 TIME LEFT:  8.33M  GRAD.:     0.373 HEAT: -78.75797
 CYCLE:     8 TIME:   0.000 TIME LEFT:  8.33M  GRAD.:     0.516 HEAT: -78.75838
 CYCLE:     9 TIME:   0.000 TIME LEFT:  8.33M  GRAD.:     4.643 HEAT: -78.74979
 CYCLE:    10 TIME:   0.000 TIME LEFT:  8.33M  GRAD.:     0.158 HEAT: -78.75848
 CYCLE:    11 TIME:   0.000 TIME LEFT:  8.33M  GRAD.:     0.107 HEAT: -78.75853
 CYCLE:    12 TIME:   0.000 TIME LEFT:  8.33M  GRAD.:     2.126 HEAT: -78.75712
 CYCLE:    13 TIME:   0.004 TIME LEFT:  8.33M  GRAD.:     0.225 HEAT: -78.75859
 CYCLE:    14 TIME:   0.000 TIME LEFT:  8.33M  GRAD.:     0.138 HEAT: -78.75864
 CYCLE:    15 TIME:   0.000 TIME LEFT:  8.33M  GRAD.:     1.897 HEAT: -78.75733
 CYCLE:    16 TIME:   0.000 TIME LEFT:  8.33M  GRAD.:     1.492 HEAT: -78.75816
 CYCLE:    17 TIME:   0.000 TIME LEFT:  8.33M  GRAD.:     8.048 HEAT: -78.76344
 CYCLE:    18 TIME:   0.000 TIME LEFT:  8.33M  GRAD.:    10.335 HEAT: -78.81186
 CYCLE:    18 TIME:   0.004 TIME LEFT:  8.33M  GRAD.:     3.876 HEAT: -78.80134
 CYCLE:    18 TIME:   0.000 TIME LEFT:  8.33M  GRAD.:     1.786 HEAT: -78.79257
 CYCLE:    18 TIME:   0.000 TIME LEFT:  8.33M  GRAD.:     1.187 HEAT: -78.78813
 CYCLE:    18 TIME:   0.000 TIME LEFT:  8.33M  GRAD.:     1.490 HEAT: -78.78524
 CYCLE:    18 TIME:   0.000 TIME LEFT:  8.33M  GRAD.:     3.499 HEAT: -78.77944
 CYCLE:    19 TIME:   0.000 TIME LEFT:  8.33M  GRAD.:     3.541 HEAT: -78.78163
 CYCLE:    20 TIME:   0.000 TIME LEFT:  8.33M  GRAD.:     2.317 HEAT: -78.78645
 CYCLE:    20 TIME:   0.000 TIME LEFT:  8.33M  GRAD.:     2.055 HEAT: -78.78556
 CYCLE:    21 TIME:   0.000 TIME LEFT:  8.33M  GRAD.:     2.057 HEAT: -78.78632
 CYCLE:    22 TIME:   0.004 TIME LEFT:  8.33M  GRAD.:     0.898 HEAT: -78.78883
 CYCLE:    22 TIME:   0.000 TIME LEFT:  8.33M  GRAD.:     1.462 HEAT: -78.78751
 CYCLE:    23 TIME:   0.000 TIME LEFT:  8.33M  GRAD.:     1.463 HEAT: -78.78787
 CYCLE:    24 TIME:   0.000 TIME LEFT:  8.33M  GRAD.:     0.681 HEAT: -78.78914
 CYCLE:    24 TIME:   0.000 TIME LEFT:  8.33M  GRAD.:     1.208 HEAT: -78.78831
 CYCLE:    25 TIME:   0.000 TIME LEFT:  8.33M  GRAD.:     3.648 HEAT: -78.78794
 CYCLE:    26 TIME:   0.000 TIME LEFT:  8.33M  GRAD.:     3.512 HEAT: -78.79134
 CYCLE:    27 TIME:   0.004 TIME LEFT:  8.33M  GRAD.:     1.608 HEAT: -78.78350
 CYCLE:    28 TIME:   0.000 TIME LEFT:  8.33M  GRAD.:     1.629 HEAT: -78.77844
 CYCLE:    29 TIME:   0.000 TIME LEFT:  8.33M  GRAD.:     2.934 HEAT: -78.76591
 CYCLE:    30 TIME:   0.000 TIME LEFT:  8.33M  GRAD.:     0.931 HEAT: -78.76439
 CYCLE:    31 TIME:   0.000 TIME LEFT:  8.33M  GRAD.:     7.771 HEAT: -78.74324
 CYCLE:    32 TIME:   0.000 TIME LEFT:  8.33M  GRAD.:     7.228 HEAT: -78.75412
 CYCLE:    33 TIME:   0.000 TIME LEFT:  8.33M  GRAD.:     1.393 HEAT: -78.75639
 CYCLE:    34 TIME:   0.004 TIME LEFT:  8.33M  GRAD.:     0.421 HEAT: -78.75731
 CYCLE:    35 TIME:   0.000 TIME LEFT:  8.33M  GRAD.:     0.655 HEAT: -78.75757
 CYCLE:    36 TIME:   0.000 TIME LEFT:  8.33M  GRAD.:     0.267 HEAT: -78.75785
 CYCLE:    37 TIME:   0.000 TIME LEFT:  8.33M  GRAD.:     0.912 HEAT: -78.75790
 CYCLE:    38 TIME:   0.000 TIME LEFT:  8.33M  GRAD.:     0.111 HEAT: -78.75829
 CYCLE:    39 TIME:   0.000 TIME LEFT:  8.33M  GRAD.:     0.341 HEAT: -78.75839
 CYCLE:    40 TIME:   0.000 TIME LEFT:  8.33M  GRAD.:     1.591 HEAT: -78.75779
 CYCLE:    41 TIME:   0.000 TIME LEFT:  8.33M  GRAD.:     1.063 HEAT: -78.75811
 CYCLE:    42 TIME:   0.000 TIME LEFT:  8.33M  GRAD.:     1.245 HEAT: -78.75835
 CYCLE:    43 TIME:   0.004 TIME LEFT:  8.33M  GRAD.:     1.083 HEAT: -78.76095
 CYCLE:    44 TIME:   0.000 TIME LEFT:  8.33M  GRAD.:     2.916 HEAT: -78.76029
 CYCLE:    45 TIME:   0.000 TIME LEFT:  8.33M  GRAD.:     4.105 HEAT: -78.75747
 CYCLE:    46 TIME:   0.000 TIME LEFT:  8.33M  GRAD.:     1.379 HEAT: -78.75757
 CYCLE:    47 TIME:   0.000 TIME LEFT:  8.33M  GRAD.:     1.044 HEAT: -78.75812
 CYCLE:    48 TIME:   0.000 TIME LEFT:  8.33M  GRAD.:     0.198 HEAT: -78.75881
 CYCLE:    49 TIME:   0.000 TIME LEFT:  8.33M  GRAD.:     0.029 HEAT: -78.75886

     GRADIENT =  0.02944 IS LESS THAN CUTOFF =  0.05000



 -------------------------------------------------------------------------------
 ts   pm7 threads=1 charge=0 precise cycles=1000 t=500 ddmax=0.2 denout
 title
 title


     GEOMETRY OPTIMISED USING EIGENVECTOR FOLLOWING (TS).     
     SCF FIELD WAS ACHIEVED                                   


                              PM7 CALCULATION
                                                       MOPAC2016 (Version: 21.129 )
                                                       Sun Nov 20 12:22:41 2022




          FINAL HEAT OF FORMATION =        -78.75886 KCAL/MOL =    -329.52707 KJ/MOL


          TOTAL ENERGY            =       -740.18266 EV
          ELECTRONIC ENERGY       =      -1515.90157 EV  POINT GROUP:     Cs  
          CORE-CORE REPULSION     =        775.71891 EV
          COSMO AREA              =         84.22 SQUARE ANGSTROMS
          COSMO VOLUME            =         63.88 CUBIC ANGSTROMS

          GRADIENT NORM           =          0.02944 = 0.01317 PER ATOM
          IONIZATION POTENTIAL    =         12.165558 EV
          HOMO LUMO ENERGIES (EV) =        -12.166  1.827
          NO. OF FILLED LEVELS    =          9
          MOLECULAR WEIGHT        =         46.0256

          MOLECULAR DIMENSIONS (Angstroms)

            Atom       Atom       Distance
            H     4    C     1     3.71008
            O     3    O     2     1.11418
            C     1    H     5     0.07750


          SCF CALCULATIONS        =         80
 
          WALL-CLOCK TIME         =          0.039 SECONDS
          COMPUTATION TIME        =          0.037 SECONDS




   ATOM   CHEMICAL          X               Y               Z
  NUMBER   SYMBOL      (ANGSTROMS)     (ANGSTROMS)     (ANGSTROMS)
 
     1       C          1.05332180  *  -1.20490842  *  -0.03125305  *
     2       O          0.13167459  *  -0.84468459  *   0.54197479  *
     3       O          0.47904615  *   1.29657686  *  -1.04092616  *
     4       H          0.30167596  *   2.18575301  *  -1.33629111  *
     5       H         -0.17781732  *   1.10313282  *  -0.37044759  *

                             CARTESIAN COORDINATES

   1    C        1.053321801    -1.204908418    -0.031253050
   2    O        0.131674589    -0.844684586     0.541974791
   3    O        0.479046149     1.296576864    -1.040926165
   4    H        0.301675960     2.185753008    -1.336291111
   5    H       -0.177817321     1.103132825    -0.370447586


           Empirical Formula: C H2 O2  =     5 atoms



      MOLECULAR POINT GROUP   :   Cs  


                  EIGENVALUES  
 -32.47875 -29.58306 -19.58137 -18.04381 -14.96138 -14.87656 -14.29022 -12.25285
 -12.16556   1.82691   1.86650   4.04238   5.77485   6.38753


              NET ATOMIC CHARGES AND DIPOLE CONTRIBUTIONS

  ATOM NO.   TYPE          CHARGE      No. of ELECS.   s-Pop       p-Pop       
    1          C           0.490095        3.5099     1.79203     1.71787
    2          O          -0.486476        6.4865     1.83377     4.65271
    3          O          -0.679736        6.6797     1.81014     4.86960
    4          H           0.334679        0.6653     0.66532
    5          H           0.341439        0.6586     0.65856
 DIPOLE           X         Y         Z       TOTAL
 POINT-CHG.     0.801     0.227    -0.697     1.086
 HYBRID        -1.534     0.773     0.871     1.926
 SUM           -0.733     1.000     0.174     1.252


          ATOMIC ORBITAL ELECTRON POPULATIONS

     Atom    s        px        py        pz   
    1  C   1.79203   0.71757   0.47128   0.52902
    2  O   1.83377   1.52479   1.57259   1.55533
    3  O   1.81014   1.68030   1.49362   1.69569
    4  H   0.66532
    5  H   0.65856
 *******************************************************************************
 ** Site#:  999         For non-commercial use only           Version 21.129  **
 *******************************************************************************
 ** Cite this program as: MOPAC2016, Version: 21.129 , James J. P. Stewart,   **
 ** Stewart Computational Chemistry, web-site: HTTP://OpenMOPAC.net.          **
 *******************************************************************************
 **                                                                           **
 **                                MOPAC2016                                  **
 **                                                                           **
 *******************************************************************************

                              PM7 CALCULATION RESULTS

 *******************************************************************************
 *  CALCULATION DONE:                                Sun Nov 20 12:22:41 2022  *
 *  PM7        - The PM7 Hamiltonian to be used
 *
 *
 *
 *                 CHARGE ON SYSTEM = 0
 *
 *
 *
 *  OLDGEO     - PREVIOUS GEOMETRY TO BE USED
 *  FORCE      - FORCE CALCULATION SPECIFIED
 *  THREADS=1  - MULTI-THREADING NOT USED
 *  T=         - A TIME OF 172800.0 SECONDS REQUESTED
 *  DUMP=N     - RESTART FILE WRITTEN EVERY 7200.0 SECONDS REQUESTED
 *  OLDENS     - INITIAL DENSITY MATRIX READ OFF DISK
 *******************************************************************************
  pm7 threads=1 charge=0 oldgeo oldens force
 title
 freq calc
   ATOM   CHEMICAL          X               Y               Z
  NUMBER   SYMBOL      (ANGSTROMS)     (ANGSTROMS)     (ANGSTROMS)
 
     1       C          1.05332180  *  -1.20490842  *  -0.03125305  *
     2       O          0.13167459  *  -0.84468459  *   0.54197479  *
     3       O          0.47904615  *   1.29657686  *  -1.04092616  *
     4       H          0.30167596  *   2.18575301  *  -1.33629111  *
     5       H         -0.17781732  *   1.10313282  *  -0.37044759  *
 


          CARTESIAN COORDINATES 

    NO.       ATOM           X           Y           Z

     1         C          1.0533     -1.2049     -0.0313
     2         O          0.1317     -0.8447      0.5420
     3         O          0.4790      1.2966     -1.0409
     4         H          0.3017      2.1858     -1.3363
     5         H         -0.1778      1.1031     -0.3704

 General Reference for PM7:
 "Optimization of Parameters for Semiempirical Methods VI: More Modifications to the 
 NDDO Approximations and Re-optimization of Parameters", J. J. P. Stewart, J. Mol. Mod., 1:32, 19 (2013)
 https://link.springer.com/article/10.1007/s00894-012-1667-x

           Empirical Formula: C H2 O2  =     5 atoms



      MOLECULAR POINT GROUP   :   Cs  


      RHF CALCULATION, NO. OF DOUBLY OCCUPIED LEVELS = 9



          HEAT OF FORMATION =     -78.758860 KCALS/MOLE


          CARTESIAN COORDINATE DERIVATIVES

   NUMBER  ATOM         X            Y            Z

     1       C      0.007331     0.005007    -0.005155
     2       O     -0.007867    -0.003942     0.004134
     3       O     -0.008594     0.012309     0.010480
     4       H     -0.004502    -0.012042    -0.004783
     5       H      0.013558    -0.001260    -0.004652
 


          GRADIENT NORM =   0.03050

          MOLECULAR WEIGHT =   46.03



          ROTATIONAL CONSTANTS IN CM(-1)

          A =    1.75022089   B =    0.21082774   C =    0.18817599



           PRINCIPAL MOMENTS OF INERTIA IN UNITS OF 10**(-40)*GRAM-CM**2

          A =       15.9939   B =      132.7756   C =      148.7585


          ORIENTATION OF MOLECULE IN FORCE CALCULATION

    NO.       ATOM         X         Y         Z

     1          C      -0.7127   -1.0480    0.0012
     2          O       0.4309   -1.0480    0.0012
     3          O       0.0320    1.6076    0.0012
     4          H       0.3070    2.5187   -0.0586
     5          H       0.8366    1.0869    0.0069


    FIRST DERIVATIVES WILL BE USED IN THE CALCULATION OF SECOND DERIVATIVES

          ESTIMATED TIME TO COMPLETE CALCULATION =        0.12 SECONDS

    FOR POINT-GROUP Cs   THERE ARE   2 UNIQUE SYMMETRY FUNCTIONS.

 STEP:   1 TIME =     0.00 SECS, INTEGRAL =      0.00 TIME LEFT: 172800.00
 STEP:   2 TIME =     0.00 SECS, INTEGRAL =      0.00 TIME LEFT: 172800.00
 STEP:   3 TIME =     0.00 SECS, INTEGRAL =      0.00 TIME LEFT: 172800.00
 STEP:   4 TIME =     0.00 SECS, INTEGRAL =      0.00 TIME LEFT: 172800.00
 STEP:   5 TIME =     0.00 SECS, INTEGRAL =      0.00 TIME LEFT: 172800.00
 STEP:   6 TIME =     0.00 SECS, INTEGRAL =      0.00 TIME LEFT: 172800.00
 STEP:   7 TIME =     0.00 SECS, INTEGRAL =      0.00 TIME LEFT: 172800.00
 STEP:   8 TIME =     0.00 SECS, INTEGRAL =      0.00 TIME LEFT: 172800.00
 STEP:   9 TIME =     0.00 SECS, INTEGRAL =      0.00 TIME LEFT: 172800.00
 STEP:  10 TIME =     0.00 SECS, INTEGRAL =      0.01 TIME LEFT: 172799.99
 STEP:  11 TIME =     0.00 SECS, INTEGRAL =      0.01 TIME LEFT: 172799.99
 STEP:  12 TIME =     0.00 SECS, INTEGRAL =      0.01 TIME LEFT: 172799.99
 STEP:  13 TIME =     0.00 SECS, INTEGRAL =      0.01 TIME LEFT: 172799.99
 STEP:  14 TIME =     0.00 SECS, INTEGRAL =      0.01 TIME LEFT: 172799.99
 STEP:  15 TIME =     0.00 SECS, INTEGRAL =      0.01 TIME LEFT: 172799.99

(To convert to Hartree/Bohr^2, multiply by (10^(-21) x N x a0^2)/(4.184 x 627.51) =  0.0642)


           FORCE MATRIX IN MILLIDYNES/ANGSTROM


                  C  1       O  2       O  3       H  4       H  5
 ------------------------------------------------------------------
     C    1  16.595487
     O    2  16.515402  16.465554
     O    3   0.097808   0.193274   6.480705
     H    4   0.031579   0.029344   4.057066   4.499259
     H    5   0.154107   0.127306   4.003929   0.819814   4.421348


          HEAT OF FORMATION =     -78.758860 KCALS/MOLE

          ZERO POINT ENERGY      14.119 KCAL/MOL

         NOTE: SYSTEM IS NOT A GROUND STATE, THEREFORE ZERO POINT
         ENERGY IS NOT MEANINGFULL. ZERO POINT ENERGY PRINTED
         DOES NOT INCLUDE THE  1 IMAGINARY FREQUENCIES


           NORMAL COORDINATE ANALYSIS (Total motion = 1 Angstrom)


   Root No.       1         2         3         4         5         6         7         8

                 1 A'      1 A"      2 A'      3 A'      2 A"      4 A'      5 A'      6 A'  

                -101.0     158.6     185.5     246.7     269.5    1374.8    2022.5    2781.0
  
           1    0.0132    0.0000   -0.0445   -0.0123    0.0000    0.0028    0.5268    0.0023
           2    0.1704    0.0001   -0.1629   -0.0639    0.0000   -0.0012    0.0035   -0.0001
           3   -0.0018    0.0122   -0.0008   -0.0015    0.0433    0.0017   -0.0000   -0.0008
           4    0.0127    0.0000   -0.0468   -0.0158   -0.0000   -0.0026   -0.3938   -0.0017
           5   -0.0108   -0.0000    0.2545   -0.0458   -0.0001   -0.0002    0.0002   -0.0003
           6    0.0013    0.0091    0.0005    0.0013   -0.0387   -0.0014    0.0000    0.0002
           7   -0.0112   -0.0001    0.0773    0.0315   -0.0000   -0.0488    0.0029   -0.0214
           8   -0.1291   -0.0001   -0.1336    0.0595   -0.0001   -0.0174   -0.0017    0.0433
           9   -0.0000   -0.0528   -0.0000   -0.0002   -0.0485    0.0003    0.0000    0.0003
          10   -0.3902    0.0006   -0.1741   -0.3375   -0.0002    0.4639   -0.0095   -0.1270
          11   -0.0142    0.0016   -0.0602    0.1704    0.0004   -0.0576    0.0026   -0.3583
          12    0.0001    0.7368    0.0010    0.0005    0.1329   -0.0005   -0.0001    0.0017
          13    0.2083   -0.0003    0.2191    0.2339    0.0007    0.3178   -0.0632    0.4654
          14    0.2049   -0.0006    0.0816    0.3738    0.0020    0.3522   -0.0196   -0.3245
          15    0.0010   -0.1891    0.0008    0.0003    0.7365   -0.0030   -0.0003    0.0014


   Root No.       9

                 7 A'  

                2838.0
  
           1    0.0010
           2   -0.0001
           3    0.0005
           4   -0.0007
           5    0.0001
           6    0.0004
           7   -0.0209
           8   -0.0175
           9   -0.0006
          10    0.0672
          11    0.5718
          12   -0.0025
          13    0.2645
          14   -0.2935
          15   -0.0000


           MASS-WEIGHTED COORDINATE ANALYSIS (NORMAL COORDINATES)


   Root No.       1         2         3         4         5         6         7         8

                 1 A'      1 A"      2 A'      3 A'      2 A"      4 A'      5 A'      6 A'  

                -101.0     158.6     185.5     246.7     269.5    1374.8    2022.5    2781.0
  
           1    0.0494    0.0001   -0.1124   -0.0602    0.0001    0.0137    0.7568    0.0112
           2    0.6354    0.0006   -0.4114   -0.3129    0.0002   -0.0061    0.0050   -0.0003
           3   -0.0066    0.0532   -0.0021   -0.0071    0.1862    0.0082   -0.0000   -0.0041
           4    0.0548    0.0002   -0.1362   -0.0891   -0.0002   -0.0146   -0.6530   -0.0094
           5   -0.0466   -0.0002    0.7416   -0.2589   -0.0006   -0.0013    0.0003   -0.0016
           6    0.0054    0.0459    0.0016    0.0073   -0.1922   -0.0077    0.0001    0.0011
           7   -0.0483   -0.0004    0.2253    0.1781   -0.0000   -0.2786    0.0049   -0.1201
           8   -0.5557   -0.0007   -0.3891    0.3363   -0.0004   -0.0995   -0.0028    0.2434
           9   -0.0001   -0.2657   -0.0001   -0.0014   -0.2411    0.0018    0.0000    0.0014
          10   -0.4214    0.0008   -0.1273   -0.4787   -0.0003    0.6651   -0.0040   -0.1789
          11   -0.0154    0.0020   -0.0440    0.2417    0.0006   -0.0825    0.0011   -0.5049
          12    0.0002    0.9313    0.0008    0.0007    0.1657   -0.0007   -0.0000    0.0023
          13    0.2250   -0.0003    0.1602    0.3318    0.0009    0.4556   -0.0263    0.6558
          14    0.2214   -0.0008    0.0597    0.5301    0.0025    0.5050   -0.0081   -0.4572
          15    0.0011   -0.2390    0.0006    0.0004    0.9180   -0.0043   -0.0001    0.0020


   Root No.       9

                 7 A'  

                2838.0
  
           1    0.0048
           2   -0.0006
           3    0.0025
           4   -0.0040
           5    0.0005
           6    0.0024
           7   -0.1179
           8   -0.0988
           9   -0.0036
          10    0.0950
          11    0.8091
          12   -0.0035
          13    0.3742
          14   -0.4153
          15   -0.0000


          DESCRIPTION OF VIBRATIONS


 VIBRATION          1    1A'         ATOM PAIR     ENERGY CONTRIBUTION    RADIAL
 FREQUENCY          -101.03         O 3 -- H 5         +68.5% (-99.9%)      5.5%
 TRANSITION DIPOLE   1.0739         O 3 -- H 4         +30.2% (-99.9%)     38.7%
 TRAVEL (Ang.)       0.4322         C 1 -- O 2          +1.2% (-62.7%)      0.0%
 REDUCED MASS        3.5731
 EFFECTIVE MASS    145.1397
 FORCE CONSTANT     -0.0215

 VIBRATION          2    1A"         ATOM PAIR     ENERGY CONTRIBUTION    RADIAL
 FREQUENCY           158.62         O 3 -- H 4         +92.7% (102.0%)      0.4%
 TRANSITION DIPOLE   0.8043         O 3 -- H 5          +7.3% ( 28.6%)      0.0%
 TRAVEL (Ang.)       0.7108
 REDUCED MASS        0.8414
 EFFECTIVE MASS      1.4546
 FORCE CONSTANT      0.0125

 VIBRATION          3    2A'         ATOM PAIR     ENERGY CONTRIBUTION    RADIAL
 FREQUENCY           185.51         O 3 -- H 4         +54.7% (150.4%)     21.4%
 TRANSITION DIPOLE   0.1735         O 3 -- H 5         +32.2% (115.4%)     43.3%
 TRAVEL (Ang.)       0.2416         C 1 -- O 2         +13.1% ( 73.5%)      0.0%
 REDUCED MASS        6.2249
 EFFECTIVE MASS     45.8464
 FORCE CONSTANT      0.1262

 VIBRATION          4    3A'         ATOM PAIR     ENERGY CONTRIBUTION    RADIAL
 FREQUENCY           246.69         O 3 -- H 4         +50.1% (264.5%)     17.8%
 TRANSITION DIPOLE   0.7551         O 3 -- H 5         +49.7% (263.6%)      0.9%
 TRAVEL (Ang.)       0.5894         C 1 -- O 2          +0.2% ( 18.5%)     21.0%
 REDUCED MASS        0.7869
 EFFECTIVE MASS     13.3839
 FORCE CONSTANT      0.0282

 VIBRATION          5    2A"         ATOM PAIR     ENERGY CONTRIBUTION    RADIAL
 FREQUENCY           269.53         O 3 -- H 5         +96.7% ( 90.8%)      0.0%
 TRANSITION DIPOLE   1.2448         O 3 -- H 4          +2.6% ( 14.9%)      0.4%
 TRAVEL (Ang.)       0.5568         C 1 -- O 2          +0.7% (  7.7%)      0.0%
 REDUCED MASS        0.8070
 EFFECTIVE MASS      1.8744
 FORCE CONSTANT      0.0345

 VIBRATION          6    4A'         ATOM PAIR     ENERGY CONTRIBUTION    RADIAL
 FREQUENCY          1374.79         O 3 -- H 5         +50.8% ( 57.5%)      9.2%
 TRANSITION DIPOLE   0.7507         O 3 -- H 4         +49.0% ( 56.5%)      9.3%
 TRAVEL (Ang.)       0.3009         C 1 -- O 2          +0.1% (  2.9%)     74.3%
 REDUCED MASS        0.5418
 EFFECTIVE MASS      1.6871
 FORCE CONSTANT      0.6033

 VIBRATION          7    5A'         ATOM PAIR     ENERGY CONTRIBUTION    RADIAL
 FREQUENCY          2022.49         C 1 -- O 2         +99.9% (100.0%)    100.0%
 TRANSITION DIPOLE   4.6904
 TRAVEL (Ang.)       0.0698
 REDUCED MASS        6.8497
 EFFECTIVE MASS     13.6321
 FORCE CONSTANT     16.5080

 VIBRATION          8    6A'         ATOM PAIR     ENERGY CONTRIBUTION    RADIAL
 FREQUENCY          2781.04         O 3 -- H 5         +68.0% ( 83.6%)     97.5%
 TRANSITION DIPOLE   1.3501         O 3 -- H 4         +32.0% ( 57.3%)     95.1%
 TRAVEL (Ang.)       0.2042
 REDUCED MASS        0.5815
 EFFECTIVE MASS      1.5034
 FORCE CONSTANT      2.6500

 VIBRATION          9    7A'         ATOM PAIR     ENERGY CONTRIBUTION    RADIAL
 FREQUENCY          2837.99         O 3 -- H 4         +69.5% ( 80.9%)     99.2%
 TRANSITION DIPOLE   0.4547         O 3 -- H 5         +30.5% ( 53.6%)    100.0%
 TRAVEL (Ang.)       0.2076
 REDUCED MASS        0.5514
 EFFECTIVE MASS      1.1605
 FORCE CONSTANT      2.6168

           FORCE CONSTANT IN CARTESIAN COORDINATES (Millidynes/A)

    ATOM   CHEMICAL       X               Y               Z
   NUMBER   SYMBOL  FORCE CONSTANT  FORCE CONSTANT  FORCE CONSTANT

      1       C       16.594366        0.056085        0.021087
      2       O       16.464114        0.217357        0.029267
      3       O        3.524287        5.320791        0.048588
      4       H        0.694806        4.312153        0.015077
      5       H        2.884215        2.081683        0.037366

 **********************
 *                    *
 * JOB ENDED NORMALLY *
 *                    *
 **********************



 TOTAL JOB TIME:             0.09 SECONDS

 == MOPAC DONE ==
