[Molden Format]
[FREQ]
-495.3
36.7
112.7
522.5
522.7
562.1
1374.6
2344.0
5568.8
       
[FR-COORD]
C -0.309159 -0.0100155 0.00359048
O 1.89842 -0.0100155 0.00359048
O -2.51655 -0.0096376 0.00359048
H 6.77202 0.0432747 0.616996
H 6.72346 0.388906 -0.775544

[FR-NORM-COORD]
Vibration 1
0 0.00718096 -0.0228657
-0.000944863 0.041196 -0.131714
0.000944863 -0.0270231 0.0878723
-0.626066 -0.0258892 0.524966
0.627767 -0.283081 0.442007
Vibration 2
0.000377945 -0.0351489 -0.00982658
0.00226767 -0.183303 -0.0512116
-0.00151178 0.116029 0.0325033
-0.013984 0.88836 0.247932
-0.00491329 0.596964 0.166674
Vibration 3
-0.0402512 -0.00075589 0.000188973
-0.0404401 0.00132281 -0.00132281
-0.0406291 -0.00302356 0.00151178
0.883825 0.020976 -0.013606
0.883825 0.013795 0.00718096
Vibration 4
0.00925966 -0.287049 1.03028
-0.00359048 0.107903 -0.387016
-0.00359048 0.107714 -0.386449
-0.00831479 -0.00113384 0.000377945
0.00850377 0.000944863 0.00075589
Vibration 5
-0.0132281 1.03047 0.287238
0.00491329 -0.388717 -0.10847
0.00491329 -0.385693 -0.107525
0.000566918 0.00869274 0.00283459
-0.00075589 0.0062361 0.00226767
Vibration 6
0 0.0062361 -0.020787
-0.000944863 0.0319364 -0.101667
0.000944863 -0.0187083 0.0585815
0.685971 -0.0153068 0.494541
-0.683325 -0.269475 0.436149
Vibration 7
-0.00113384 0.00113384 -0.000377945
0.918029 0.00604712 -0.00226767
-0.917084 -0.00377945 0.00132281
0.00075589 -0.0249444 0.0096376
-0.0020787 -0.0247554 0.00850377
Vibration 8
1.07714 0.0153068 -0.00548021
-0.403645 -0.00566918 0.0020787
-0.404968 -0.00566918 0.0020787
-0.00188973 0 -0.000377945
-0.00188973 -0.000188973 0.000377945
Vibration 9
0.000377945 0 -0.000188973
0.000566918 -0.000566918 -0.000944863
0.000566918 0.000377945 0.000377945
-0.0190862 0.230358 -0.909714
-0.00302356 -0.227901 0.920863
