[Molden Format]
[FREQ]
-458.1
573.1
846.4
1033.6
1194.7
1218.1
1849.6
2640.8
2765.9
       
[FR-COORD]
C -0.265129 -0.811259 -0.0302356
O 1.99026 -0.811259 -0.0302356
O -1.54126 1.45377 -0.0302356
H -1.54013 -2.41942 -0.188595
H -2.4266 1.88973 1.50932

[FR-NORM-COORD]
Vibration 1
0.0147399 0.00736993 -0.0555579
0.0107714 0.00283459 0.0531013
-0.0920297 -0.0508336 -0.0213539
-0.000944863 0.0410071 -0.302923
1.11588 0.634003 0.462983
Vibration 2
-0.193886 -0.313128 -0.0211649
-0.20239 0.323899 0.0124722
0.336182 -0.0882502 0.0196532
-0.127745 -0.296876 -0.109793
0.313506 0.286105 -0.146643
Vibration 3
-0.0062361 -0.0566918 -0.126234
-0.00925966 0.0132281 0.0500777
-0.00831479 0.0812582 -0.0309915
0.0457314 -0.166863 0.722442
0.308214 -0.655924 0.478101
Vibration 4
-0.00661404 0.129824 -0.206358
-0.00793685 -0.00944863 0.0466762
0.0319364 -0.130202 0.0822031
-0.147588 0.130958 0.757213
-0.155713 0.539139 -0.343174
Vibration 5
-0.0786126 0.342418 0.0914627
-0.109037 -0.00680301 -0.0113384
0.138139 -0.208815 -0.0678412
0.174611 0.0946753 -0.188217
0.299711 -0.751544 0.356024
Vibration 6
-0.0436527 0.0496998 -0.0224877
-0.0391173 -0.0410071 0.000188973
0.00434637 0.0410071 0.0221098
1.12325 -0.870975 -0.000566918
-0.0498888 0.277412 -0.0865495
Vibration 7
0.679356 -0.0472432 -0.0041574
-0.516273 -0.00566918 -0.00132281
-0.0162516 0.0170075 0.0115273
0.328623 0.387583 0.0417629
0.0315584 -0.00396842 -0.153068
Vibration 8
-0.100533 -0.0948642 -0.00888171
0.0105825 -0.0041574 -0.000377945
0.00132281 -0.00793685 -0.00340151
1.035 1.32016 0.123588
-0.0230547 0.00472431 0.0430858
Vibration 9
0.0257003 -0.00869274 -0.0119053
-0.0096376 0.00170075 0.000377945
0.048566 -0.0309915 -0.075778
-0.0449755 -0.0162516 -0.00245664
-0.880045 0.585059 1.34114
