[Molden Format]
[FREQ]
-1588.1
205.5
438.1
460.8
727.7
979.8
1909.0
2367.6
2723.5
       
[FR-COORD]
C -0.105258 -0.874376 -0.020787
O 2.08928 -0.874376 -0.020787
O -1.73023 1.37667 -0.020787
H -2.76939 -0.664239 0.44144
H -1.67543 3.11219 0.468841

[FR-NORM-COORD]
Vibration 1
0.0844708 -0.0820141 -0.0243775
0.02759 0.00718096 0.00245664
-0.0325033 -0.0219208 0.000944863
-0.644019 1.22813 0.111494
-0.28327 -0.0179524 0.125856
Vibration 2
-0.0124722 -0.140407 -0.00925966
-0.0145509 0.062361 0.0171965
-0.0181414 0.0570697 -0.0978878
0.255302 -0.00472431 0.569563
0.413472 -0.217696 0.819574
Vibration 3
-0.12699 -0.0699199 -0.133793
-0.112628 0.171965 0.0523454
0.180091 -0.133037 0.0642507
-0.189162 0.154202 0.312183
0.631546 0.0608492 -0.567485
Vibration 4
0.048188 0.181603 -0.215996
0.0563138 -0.118297 0.0888171
-0.107147 -0.0266451 0.0241885
0.209382 0.0379835 1.03651
0.0236216 0.0995886 -0.254168
Vibration 5
-0.0489439 0.319175 0.0975099
-0.0257003 -0.0372276 -0.0328812
0.0610381 -0.192185 -0.0782347
-0.398165 0.125289 -0.0850377
0.42311 -0.287427 0.68427
Vibration 6
0.0442196 -0.0243775 0.013984
0.0812582 -0.0190862 -0.00321253
-0.169697 0.0292908 0.0308025
-0.237539 0.048188 -0.362638
1.11399 0.0786126 -0.241885
Vibration 7
0.435204 0.0434637 0.00812582
-0.365662 -0.00340151 0.000944863
-0.020598 -0.0391173 0.0119053
0.699766 0.240184 -0.223744
0.242641 -0.0835259 -0.0771008
Vibration 8
-0.154958 0.0272121 0.0111494
0.0634948 -0.00188973 0.000188973
-0.0249444 -0.0578256 0.0166296
1.16917 0.764583 -0.338828
0.0644397 -0.140974 -0.0593374
Vibration 9
0 -0.0215429 0.00321253
-0.00245664 0.00321253 -0.00113384
-0.00661404 -0.0874943 -0.0236216
0.128312 0.013606 -0.0534792
0.0154958 1.58057 0.411204
