[Molden Format]
[FREQ]
-1969.9
354.6
496.2
641.8
1064.3
1342.1
1552.5
2462.9
2757.4
       
[FR-COORD]
C -0.384559 -0.748709 0
O 2.0135 -0.748709 0
O -1.72343 1.3126 0
H 0.76515 -2.96952 0.000377945
H -0.788583 2.94041 0.000566918

[FR-NORM-COORD]
Vibration 1
-0.133982 0.0570697 0
-0.00302356 -0.0772898 0
0.0151178 0.0213539 0
1.51065 0.143808 0
-0.106203 0.062361 0
Vibration 2
0 0 -0.248877
0 0 0.00491329
0 0 0.0842818
0 0 1.43468
0 0 0.116974
Vibration 3
-0.15458 -0.265695 0
-0.153257 0.236027 0
0.204468 -0.013606 0
0.189351 -0.0326923 0
0.841306 -0.330702 0
Vibration 4
0 0 0.125289
0 0 -0.0657625
0 0 -0.127368
0 0 0.275711
0 0 1.2956
Vibration 5
0.0247554 -0.0529123 0
0.139651 -0.0421409 0
-0.24094 0.114517 0
0.137572 -0.0132281 0
1.17635 -0.505691 0
Vibration 6
-0.0646286 0.367174 0
-0.0519675 -0.0177634 0
0.0636838 -0.252467 0
-0.163839 0.311805 0
0.749465 -0.399299 0
Vibration 7
0.46903 0.0464873 0
-0.354702 -0.0185193 0
-0.0459203 0.0241885 0
0.521753 -0.500966 0
0.250767 -0.14154 0
Vibration 8
0.0952422 -0.0954312 0
-0.0595264 -0.0453534 0
-0.00699199 0.0171965 0
-0.0521564 1.61685 0
-0.0281569 -0.0336371 0
Vibration 9
0.0075589 -0.0300466 0
-0.00604712 -0.00151178 0
-0.0425188 -0.0782347 0
0.0224877 0.0251334 0
0.660459 1.59852 0.000188973
