 *******************************************************************************
 ** Site#:  999         For non-commercial use only           Version 21.129  **
 *******************************************************************************
 ** Cite this program as: MOPAC2016, Version: 21.129 , James J. P. Stewart,   **
 ** Stewart Computational Chemistry, web-site: HTTP://OpenMOPAC.net.          **
 *******************************************************************************
 **                                                                           **
 **                                MOPAC2016                                  **
 **                                                                           **
 *******************************************************************************

                              PM7 CALCULATION RESULTS

 *******************************************************************************
 *  CALCULATION DONE:                                Sun Nov 20 12:23:21 2022  *
 *  PM7        - The PM7 Hamiltonian to be used
 *
 *
 *
 *                 CHARGE ON SYSTEM = 0
 *
 *
 *
 *  PRECISE    - TIGHTER CRITERIA TO BE USED
 *  TS         - USE EF ROUTINE FOR TS SEARCH
 *  INT        - INTERNAL COORDINATE SYSTEM TO BE USED
 *  THREADS=1  - MULTI-THREADING NOT USED
 *  T=         - A TIME OF 500.0 SECONDS REQUESTED
 *  DUMP=N     - RESTART FILE WRITTEN EVERY 7200.0 SECONDS REQUESTED
 *  CYCLES=    - DO A MAXIMUM OF 1000 STEPS
 *  DDMAX=     - MAXIMUM TRUST RADIUS  0.200 ANG/RAD
 *  DENOUT     - SAVE DENSITY MATRIX FOR USE LATER
 *******************************************************************************
int ts   pm7 threads=1 charge=0 precise cycles=1000 t=500 ddmax=0.2 denout
 title
 title
  ATOM    CHEMICAL      BOND LENGTH      BOND ANGLE     TWIST ANGLE 
 NUMBER    SYMBOL       (ANGSTROMS)      (DEGREES)       (DEGREES) 
   (I)                     NA:I           NB:NA:I       NC:NB:NA:I       NA    NB    NC 
     1       C          0.00000000       0.0000000       0.0000000        0     0     0
     2       O          1.35212281  *    0.0000000       0.0000000        1     0     0
     3       O          1.29742305  *  113.2299902  *    0.0000000        1     2     0
     4       H          0.96849733  *  127.2332544  *   -1.1912884  *     3     1     2
     5       H          0.95430651  *  119.2033749  *  -90.0000914  *     2     1     3
 


          CARTESIAN COORDINATES 

    NO.       ATOM           X           Y           Z

     1         C          0.0000      0.0000      0.0000
     2         O          1.3521      0.0000      0.0000
     3         O         -0.5117      1.1922      0.0000
     4         H         -0.0344      2.0348      0.0160
     5         H          1.8177     -0.0000     -0.8330

 General Reference for PM7:
 "Optimization of Parameters for Semiempirical Methods VI: More Modifications to the 
 NDDO Approximations and Re-optimization of Parameters", J. J. P. Stewart, J. Mol. Mod., 1:32, 19 (2013)
 https://link.springer.com/article/10.1007/s00894-012-1667-x

           Empirical Formula: C H2 O2  =     5 atoms



      MOLECULAR POINT GROUP   :   C1  


      RHF CALCULATION, NO. OF DOUBLY OCCUPIED LEVELS = 9


          Transition state refinement using EF

          HESSIAN CALCULATED NUMERICALLY

 CYCLE:     1 TIME:   0.004 TIME LEFT:  8.33M  GRAD.:     7.693 HEAT: -66.90181
 CYCLE:     2 TIME:   0.000 TIME LEFT:  8.33M  GRAD.:     4.423 HEAT: -67.48247
 CYCLE:     3 TIME:   0.000 TIME LEFT:  8.33M  GRAD.:     1.733 HEAT: -67.84849
 CYCLE:     4 TIME:   0.000 TIME LEFT:  8.33M  GRAD.:     0.799 HEAT: -67.91618
 CYCLE:     5 TIME:   0.000 TIME LEFT:  8.33M  GRAD.:     0.185 HEAT: -67.92906
 CYCLE:     6 TIME:   0.000 TIME LEFT:  8.33M  GRAD.:     0.045 HEAT: -67.93004

     GRADIENT =  0.04516 IS LESS THAN CUTOFF =  0.05000



 -------------------------------------------------------------------------------
 int ts   pm7 threads=1 charge=0 precise cycles=1000 t=500 ddmax=0.2 denout
 title
 title


     GEOMETRY OPTIMISED USING EIGENVECTOR FOLLOWING (TS).     
     SCF FIELD WAS ACHIEVED                                   


                              PM7 CALCULATION
                                                       MOPAC2016 (Version: 21.129 )
                                                       Sun Nov 20 12:23:21 2022




          FINAL HEAT OF FORMATION =        -67.93004 KCAL/MOL =    -284.21929 KJ/MOL


          TOTAL ENERGY            =       -739.73234 EV
          ELECTRONIC ENERGY       =      -1637.14404 EV  POINT GROUP:     C1  
          CORE-CORE REPULSION     =        897.41170 EV
          COSMO AREA              =         73.27 SQUARE ANGSTROMS
          COSMO VOLUME            =         54.03 CUBIC ANGSTROMS

          GRADIENT NORM           =          0.04516 = 0.02020 PER ATOM
          IONIZATION POTENTIAL    =         10.912992 EV
          HOMO LUMO ENERGIES (EV) =        -10.913  1.751
          NO. OF FILLED LEVELS    =          9
          MOLECULAR WEIGHT        =         46.0256

          MOLECULAR DIMENSIONS (Angstroms)

            Atom       Atom       Distance
            H     5    H     4     3.02923
            H     4    C     1     1.41333
            O     3    O     2     0.51173


          SCF CALCULATIONS        =         16
 
          WALL-CLOCK TIME         =          0.012 SECONDS
          COMPUTATION TIME        =          0.011 SECONDS




  ATOM    CHEMICAL      BOND LENGTH      BOND ANGLE     TWIST ANGLE 
 NUMBER    SYMBOL       (ANGSTROMS)      (DEGREES)       (DEGREES) 
   (I)                     NA:I           NB:NA:I       NC:NB:NA:I       NA    NB    NC 
     1       C          0.00000000       0.0000000       0.0000000        0     0     0
     2       O          1.31996841  *    0.0000000       0.0000000        1     0     0
     3       O          1.30283769  *  113.5242562  *    0.0000000        1     2     0
     4       H          0.96512086  *  127.5136205  *    0.8202868  *     3     1     2
     5       H          0.92291595  *  138.7810823  *  -99.0457979  *     2     1     3

                             CARTESIAN COORDINATES

   1    C        0.000000000     0.000000000     0.000000000
   2    O        1.319968412     0.000000000     0.000000000
   3    O       -0.520011081     1.194560391     0.000000000
   4    H       -0.052741262     2.038951931    -0.010959667
   5    H        2.014183378    -0.095614811    -0.600580758


           Empirical Formula: C H2 O2  =     5 atoms



      MOLECULAR POINT GROUP   :   C1  


                  EIGENVALUES  
 -30.62445 -29.47817 -23.20409 -19.79763 -15.50418 -14.94175 -13.65498 -12.88211
 -10.91299   1.75123   3.12866   3.49869   6.19750   6.81877


              NET ATOMIC CHARGES AND DIPOLE CONTRIBUTIONS

  ATOM NO.   TYPE          CHARGE      No. of ELECS.   s-Pop       p-Pop       
    1          C           0.672843        3.3272     1.75708     1.57007
    2          O          -0.784467        6.7845     1.71856     5.06591
    3          O          -0.633162        6.6332     1.78167     4.85149
    4          H           0.344081        0.6559     0.65592
    5          H           0.400705        0.5993     0.59929
 DIPOLE           X         Y         Z       TOTAL
 POINT-CHG.     0.397    -0.447    -1.174     1.318
 HYBRID         1.339     1.540    -0.270     2.059
 SUM            1.736     1.093    -1.444     2.509


          ATOMIC ORBITAL ELECTRON POPULATIONS

     Atom    s        px        py        pz   
    1  C   1.75708   0.57417   0.69191   0.30399
    2  O   1.71856   1.43835   1.93911   1.68844
    3  O   1.78167   1.68304   1.35752   1.81094
    4  H   0.65592
    5  H   0.59929
 *******************************************************************************
 ** Site#:  999         For non-commercial use only           Version 21.129  **
 *******************************************************************************
 ** Cite this program as: MOPAC2016, Version: 21.129 , James J. P. Stewart,   **
 ** Stewart Computational Chemistry, web-site: HTTP://OpenMOPAC.net.          **
 *******************************************************************************
 **                                                                           **
 **                                MOPAC2016                                  **
 **                                                                           **
 *******************************************************************************

                              PM7 CALCULATION RESULTS

 *******************************************************************************
 *  CALCULATION DONE:                                Sun Nov 20 12:23:21 2022  *
 *  PM7        - The PM7 Hamiltonian to be used
 *
 *
 *
 *                 CHARGE ON SYSTEM = 0
 *
 *
 *
 *  OLDGEO     - PREVIOUS GEOMETRY TO BE USED
 *  FORCE      - FORCE CALCULATION SPECIFIED
 *  THREADS=1  - MULTI-THREADING NOT USED
 *  T=         - A TIME OF 172800.0 SECONDS REQUESTED
 *  DUMP=N     - RESTART FILE WRITTEN EVERY 7200.0 SECONDS REQUESTED
 *  OLDENS     - INITIAL DENSITY MATRIX READ OFF DISK
 *******************************************************************************
  pm7 threads=1 charge=0 oldgeo oldens force
 title
 freq calc
  ATOM    CHEMICAL      BOND LENGTH      BOND ANGLE     TWIST ANGLE 
 NUMBER    SYMBOL       (ANGSTROMS)      (DEGREES)       (DEGREES) 
   (I)                     NA:I           NB:NA:I       NC:NB:NA:I       NA    NB    NC 
     1       C          0.00000000       0.0000000       0.0000000        0     0     0
     2       O          1.31996841  *    0.0000000       0.0000000        1     0     0
     3       O          1.30283769  *  113.5242562  *    0.0000000        1     2     0
     4       H          0.96512086  *  127.5136205  *    0.8202868  *     3     1     2
     5       H          0.92291595  *  138.7810823  *  -99.0457979  *     2     1     3
 


          CARTESIAN COORDINATES 

    NO.       ATOM           X           Y           Z

     1         C          0.0000      0.0000      0.0000
     2         O          1.3200      0.0000      0.0000
     3         O         -0.5200      1.1946      0.0000
     4         H         -0.0527      2.0390     -0.0110
     5         H          2.0142     -0.0956     -0.6006

 General Reference for PM7:
 "Optimization of Parameters for Semiempirical Methods VI: More Modifications to the 
 NDDO Approximations and Re-optimization of Parameters", J. J. P. Stewart, J. Mol. Mod., 1:32, 19 (2013)
 https://link.springer.com/article/10.1007/s00894-012-1667-x

           Empirical Formula: C H2 O2  =     5 atoms



      MOLECULAR POINT GROUP   :   C1  


      RHF CALCULATION, NO. OF DOUBLY OCCUPIED LEVELS = 9



          HEAT OF FORMATION =     -67.930041 KCALS/MOLE


          CARTESIAN COORDINATE DERIVATIVES

   NUMBER  ATOM         X            Y            Z

     1       C      0.022914    -0.005441    -0.024508
     2       O      0.006410     0.016008     0.025696
     3       O      0.004204    -0.004277     0.005566
     4       H      0.001515    -0.000378    -0.001749
     5       H     -0.035044    -0.005912    -0.005005
 


          GRADIENT NORM =   0.05894

          MOLECULAR WEIGHT =   46.03



          ROTATIONAL CONSTANTS IN CM(-1)

          A =    2.64391612   B =    0.38996520   C =    0.34420905



           PRINCIPAL MOMENTS OF INERTIA IN UNITS OF 10**(-40)*GRAM-CM**2

          A =       10.5876   B =       71.7827   C =       81.3249


          ORIENTATION OF MOLECULE IN FORCE CALCULATION

    NO.       ATOM         X         Y         Z

     1          C      -0.3210   -0.4578    0.0134
     2          O       0.9989   -0.4578    0.0134
     3          O      -0.8410    0.7368    0.0134
     4          H      -0.3738    1.5811    0.0024
     5          H       1.6931   -0.5534   -0.5872


    FIRST DERIVATIVES WILL BE USED IN THE CALCULATION OF SECOND DERIVATIVES

          ESTIMATED TIME TO COMPLETE CALCULATION =        0.00 SECONDS

    FOR POINT-GROUP C1   THERE ARE   1 UNIQUE SYMMETRY FUNCTIONS.

 STEP:   1 TIME =     0.00 SECS, INTEGRAL =      0.00 TIME LEFT: 172800.00
 STEP:   2 TIME =     0.00 SECS, INTEGRAL =      0.00 TIME LEFT: 172800.00
 STEP:   3 TIME =     0.00 SECS, INTEGRAL =      0.00 TIME LEFT: 172800.00
 STEP:   4 TIME =     0.00 SECS, INTEGRAL =      0.00 TIME LEFT: 172800.00
 STEP:   5 TIME =     0.00 SECS, INTEGRAL =      0.00 TIME LEFT: 172800.00
 STEP:   6 TIME =     0.00 SECS, INTEGRAL =      0.01 TIME LEFT: 172799.99
 STEP:   7 TIME =     0.00 SECS, INTEGRAL =      0.01 TIME LEFT: 172799.99
 STEP:   8 TIME =     0.00 SECS, INTEGRAL =      0.01 TIME LEFT: 172799.99
 STEP:   9 TIME =     0.00 SECS, INTEGRAL =      0.01 TIME LEFT: 172799.99
 STEP:  10 TIME =     0.00 SECS, INTEGRAL =      0.01 TIME LEFT: 172799.99
 STEP:  11 TIME =     0.00 SECS, INTEGRAL =      0.01 TIME LEFT: 172799.99
 STEP:  12 TIME =     0.00 SECS, INTEGRAL =      0.02 TIME LEFT: 172799.98
 STEP:  13 TIME =     0.00 SECS, INTEGRAL =      0.02 TIME LEFT: 172799.98
 STEP:  14 TIME =     0.00 SECS, INTEGRAL =      0.02 TIME LEFT: 172799.98
 STEP:  15 TIME =     0.00 SECS, INTEGRAL =      0.02 TIME LEFT: 172799.98

(To convert to Hartree/Bohr^2, multiply by (10^(-21) x N x a0^2)/(4.184 x 627.51) =  0.0642)


           FORCE MATRIX IN MILLIDYNES/ANGSTROM


                  C  1       O  2       O  3       H  4       H  5
 ------------------------------------------------------------------
     C    1  10.067097
     O    2   5.238138   9.034434
     O    3   5.726981   1.717943   8.808045
     H    4   1.215082   0.199903   3.557859   4.365414
     H    5   0.927719   3.650733   0.152140   0.054442   4.194598


          HEAT OF FORMATION =     -67.930041 KCALS/MOLE

          ZERO POINT ENERGY      14.927 KCAL/MOL

         NOTE: SYSTEM IS NOT A GROUND STATE, THEREFORE ZERO POINT
         ENERGY IS NOT MEANINGFULL. ZERO POINT ENERGY PRINTED
         DOES NOT INCLUDE THE  1 IMAGINARY FREQUENCIES


           NORMAL COORDINATE ANALYSIS (Total motion = 1 Angstrom)


   Root No.       1         2         3         4         5         6         7         8

                 1 A       2 A       3 A       4 A       5 A       6 A       7 A       8 A   

                -543.2     354.1     476.5     648.7     881.6    1258.0    1334.3    2721.9
  
           1    0.0202    0.0391   -0.0606    0.0122    0.0240    0.1812   -0.1858   -0.0054
           2    0.0193    0.0084   -0.1027   -0.0002   -0.0085    0.1305    0.2227    0.0042
           3    0.0391    0.0145    0.0150    0.0840    0.0039   -0.0140    0.0142    0.0041
           4   -0.0143   -0.0418   -0.0697   -0.0072    0.0585   -0.1432    0.0786   -0.0373
           5   -0.0758   -0.0023    0.0916   -0.0013   -0.0294    0.0002   -0.0086    0.0051
           6   -0.0104   -0.0598   -0.0115   -0.0347   -0.0060    0.0167   -0.0180    0.0259
           7   -0.0031   -0.0078    0.0888   -0.0034   -0.1217    0.0043    0.0377    0.0046
           8    0.0126    0.0029   -0.0173    0.0023    0.0526   -0.0861   -0.1509    0.0053
           9   -0.0150    0.0197   -0.0047   -0.0777    0.0012    0.0004   -0.0020   -0.0002
          10   -0.0671   -0.0807    0.4032   -0.0152    0.6216    0.2613    0.2182   -0.0565
          11    0.0340    0.0282   -0.1717    0.0128   -0.2601   -0.1481   -0.1568   -0.1361
          12   -0.0778   -0.1154   -0.0146    0.7324   -0.0063    0.0048    0.0151    0.0041
          13    0.1027    0.4026    0.0168    0.0398    0.0955   -0.2156    0.1501    0.6398
          14    0.7388   -0.1374    0.2153   -0.0262   -0.0070   -0.0437    0.0361   -0.0791
          15    0.0143    0.5802    0.0930    0.0501    0.0354   -0.1091    0.1330   -0.4600


   Root No.       9

                 9 A   

                2766.3
  
           1   -0.0020
           2   -0.0118
           3    0.0015
           4   -0.0079
           5    0.0011
           6    0.0042
           7   -0.0172
           8   -0.0377
           9    0.0002
          10    0.3014
          11    0.7323
          12   -0.0067
          13    0.1207
          14   -0.0095
          15   -0.0807


           MASS-WEIGHTED COORDINATE ANALYSIS (NORMAL COORDINATES)


   Root No.       1         2         3         4         5         6         7         8

                 1 A       2 A       3 A       4 A       5 A       6 A       7 A       8 A   

                -543.2     354.1     476.5     648.7     881.6    1258.0    1334.3    2721.9
  
           1    0.0833    0.1672   -0.2396    0.0486    0.0915    0.5722   -0.5060   -0.0224
           2    0.0798    0.0360   -0.4059   -0.0009   -0.0323    0.4121    0.6063    0.0174
           3    0.1616    0.0619    0.0593    0.3364    0.0149   -0.0443    0.0385    0.0169
           4   -0.0681   -0.2064   -0.3183   -0.0335    0.2575   -0.5219    0.2470   -0.1797
           5   -0.3613   -0.0116    0.4179   -0.0060   -0.1293    0.0008   -0.0272    0.0246
           6   -0.0495   -0.2952   -0.0525   -0.1604   -0.0264    0.0609   -0.0564    0.1246
           7   -0.0148   -0.0386    0.4052   -0.0159   -0.5355    0.0156    0.1185    0.0221
           8    0.0601    0.0143   -0.0788    0.0107    0.2313   -0.3138   -0.4743    0.0257
           9   -0.0714    0.0971   -0.0214   -0.3589    0.0054    0.0015   -0.0063   -0.0008
          10   -0.0803   -0.1000    0.4618   -0.0176    0.6864    0.2391    0.1721   -0.0683
          11    0.0407    0.0349   -0.1967    0.0148   -0.2872   -0.1355   -0.1237   -0.1647
          12   -0.0931   -0.1429   -0.0167    0.8494   -0.0070    0.0044    0.0119    0.0050
          13    0.1229    0.4987    0.0192    0.0462    0.1054   -0.1973    0.1184    0.7738
          14    0.8842   -0.1702    0.2466   -0.0304   -0.0078   -0.0400    0.0285   -0.0957
          15    0.0171    0.7188    0.1065    0.0581    0.0390   -0.0998    0.1049   -0.5564


   Root No.       9

                 9 A   

                2766.3
  
           1   -0.0082
           2   -0.0495
           3    0.0062
           4   -0.0381
           5    0.0052
           6    0.0203
           7   -0.0834
           8   -0.1825
           9    0.0009
          10    0.3659
          11    0.8889
          12   -0.0082
          13    0.1465
          14   -0.0116
          15   -0.0980


          DESCRIPTION OF VIBRATIONS


 VIBRATION          1    1A          ATOM PAIR     ENERGY CONTRIBUTION    RADIAL
 FREQUENCY          -543.22         O 2 -- H 5        -118.9% (-92.2%)      0.1%
 TRANSITION DIPOLE   1.1659         C 1 -- O 2          -8.9% (-25.2%)      8.7%
 TRAVEL (Ang.)       0.3588         O 3 -- H 4          -5.1% (-19.0%)     45.7%
 REDUCED MASS        0.9640         C 1 -- O 3          -4.9% (-18.7%)      0.7%
 EFFECTIVE MASS      1.6577
 FORCE CONSTANT     -0.1676

 VIBRATION          2    2A          ATOM PAIR     ENERGY CONTRIBUTION    RADIAL
 FREQUENCY           354.12         O 2 -- H 5         +52.4% (106.7%)      0.8%
 TRANSITION DIPOLE   1.1198         C 1 -- O 2         +30.7% ( 81.7%)     51.8%
 TRAVEL (Ang.)       0.4545         C 1 -- O 3         +10.5% ( 47.7%)      8.8%
 REDUCED MASS        0.9219         O 3 -- H 4          +6.4% ( 37.3%)      0.1%
 EFFECTIVE MASS      6.8570
 FORCE CONSTANT      0.0681

 VIBRATION          3    3A          ATOM PAIR     ENERGY CONTRIBUTION    RADIAL
 FREQUENCY           476.54         C 1 -- O 2         +32.0% ( 96.8%)      0.9%
 TRANSITION DIPOLE   0.6132         C 1 -- O 3         +30.7% ( 95.0%)      0.3%
 TRAVEL (Ang.)       0.2433         O 3 -- H 4         +25.4% ( 86.3%)     33.5%
 REDUCED MASS        2.3910         O 2 -- H 5         +11.9% ( 59.1%)     16.8%
 EFFECTIVE MASS     14.7872
 FORCE CONSTANT      0.3199

 VIBRATION          4    4A          ATOM PAIR     ENERGY CONTRIBUTION    RADIAL
 FREQUENCY           648.75         O 3 -- H 4         +89.2% ( 85.4%)      0.0%
 TRANSITION DIPOLE   1.4287         C 1 -- O 3          +7.1% ( 24.1%)      0.3%
 TRAVEL (Ang.)       0.3283         C 1 -- O 2          +2.8% ( 15.2%)      2.7%
 REDUCED MASS        0.9643         O 2 -- H 5          +0.9% (  8.7%)     11.6%
 EFFECTIVE MASS      3.0852
 FORCE CONSTANT      0.2391

 VIBRATION          5    5A          ATOM PAIR     ENERGY CONTRIBUTION    RADIAL
 FREQUENCY           881.61         O 3 -- H 4         +66.5% ( 91.4%)      1.1%
 TRANSITION DIPOLE   0.8796         C 1 -- O 3         +21.8% ( 52.4%)     52.3%
 TRAVEL (Ang.)       0.1833         O 2 -- H 5          +6.6% ( 28.9%)     68.2%
 REDUCED MASS        2.2753         C 1 -- O 2          +5.1% ( 25.2%)     71.3%
 EFFECTIVE MASS      7.1051
 FORCE CONSTANT      1.0419

 VIBRATION          6    6A          ATOM PAIR     ENERGY CONTRIBUTION    RADIAL
 FREQUENCY          1258.00         C 1 -- O 2         +51.9% ( 82.8%)     86.9%
 TRANSITION DIPOLE   2.7390         C 1 -- O 3         +29.4% ( 62.3%)     23.4%
 TRAVEL (Ang.)       0.1107         O 2 -- H 5         +11.7% ( 39.3%)     93.8%
 REDUCED MASS        4.3766         O 3 -- H 4          +7.0% ( 30.5%)     85.3%
 EFFECTIVE MASS     11.8971
 FORCE CONSTANT      4.0808

 VIBRATION          7    7A          ATOM PAIR     ENERGY CONTRIBUTION    RADIAL
 FREQUENCY          1334.34         C 1 -- O 3         +53.7% ( 89.1%)     98.6%
 TRANSITION DIPOLE   5.0115         C 1 -- O 2         +35.0% ( 72.0%)     58.0%
 TRAVEL (Ang.)       0.0943         O 3 -- H 4          +8.6% ( 35.7%)     87.6%
 REDUCED MASS        5.6786         O 2 -- H 5          +2.7% ( 19.8%)     94.3%
 EFFECTIVE MASS     12.1920
 FORCE CONSTANT      5.9570

 VIBRATION          8    8A          ATOM PAIR     ENERGY CONTRIBUTION    RADIAL
 FREQUENCY          2721.92         O 2 -- H 5         +96.1% ( 98.3%)     99.1%
 TRANSITION DIPOLE   1.6668         O 3 -- H 4          +3.4% ( 18.4%)     99.6%
 TRAVEL (Ang.)       0.1671         C 1 -- O 2          +0.5% (  7.1%)     68.0%
 REDUCED MASS        0.8871
 EFFECTIVE MASS      1.3583
 FORCE CONSTANT      3.8723

 VIBRATION          9    9A          ATOM PAIR     ENERGY CONTRIBUTION    RADIAL
 FREQUENCY          2766.29         O 3 -- H 4         +96.5% ( 98.0%)     98.8%
 TRANSITION DIPOLE   1.1957         O 2 -- H 5          +3.2% ( 17.9%)     97.9%
 TRAVEL (Ang.)       0.1657         C 1 -- O 3          +0.3% (  5.2%)     36.1%
 REDUCED MASS        0.8877
 EFFECTIVE MASS      1.3018
 FORCE CONSTANT      4.0025

           FORCE CONSTANT IN INTERNAL COORDINATES (Millidynes/A)

    ATOM   CHEMICAL  BOND LENGTH      BOND ANGLE     TWIST ANGLE
   NUMBER   SYMBOL  FORCE CONSTANT  FORCE CONSTANT  FORCE CONSTANT

      1       C        0.000000        0.000000        0.000000
      2       O        6.977023        0.000000        0.000000
      3       O        7.430468        1.222983        0.000000
      4       H        4.286295        0.429002        0.105586
      5       H        4.152889        0.132647       -0.043832

 **********************
 *                    *
 * JOB ENDED NORMALLY *
 *                    *
 **********************



 TOTAL JOB TIME:             0.05 SECONDS

 == MOPAC DONE ==
