 *******************************************************************************
 ** Site#:  999         For non-commercial use only           Version 21.129  **
 *******************************************************************************
 ** Cite this program as: MOPAC2016, Version: 21.129 , James J. P. Stewart,   **
 ** Stewart Computational Chemistry, web-site: HTTP://OpenMOPAC.net.          **
 *******************************************************************************
 **                                                                           **
 **                                MOPAC2016                                  **
 **                                                                           **
 *******************************************************************************

                              PM7 CALCULATION RESULTS

 *******************************************************************************
 *  CALCULATION DONE:                                Sun Nov 20 12:22:59 2022  *
 *  PM7        - The PM7 Hamiltonian to be used
 *
 *
 *
 *                 CHARGE ON SYSTEM = 0
 *
 *
 *
 *  THREADS=1  - MULTI-THREADING NOT USED
 *  T=         - A TIME OF 172800.0 SECONDS REQUESTED
 *  DUMP=N     - RESTART FILE WRITTEN EVERY 7200.0 SECONDS REQUESTED
 *  CYCLES=    - DO A MAXIMUM OF 5000 STEPS
 *  DENOUT     - SAVE DENSITY MATRIX FOR USE LATER
 *******************************************************************************
   pm7 threads=1 denout charge=0  cycles=5000
 title
 title
   ATOM   CHEMICAL          X               Y               Z
  NUMBER   SYMBOL      (ANGSTROMS)     (ANGSTROMS)     (ANGSTROMS)
 
     1       C         -0.01207000  *  -0.45144000  *   0.00001000  *
     2       O          1.13349000  *  -0.10644000  *  -0.00002000  *
     3       O         -0.96240000  *   0.53004000  *   0.00000000  *
     4       H         -0.39924000  *  -1.46967000  *   0.00005000  *
     5       H         -1.89858000  *   0.21643000  *   0.00003000  *
 


          CARTESIAN COORDINATES 

    NO.       ATOM           X           Y           Z

     1         C         -0.0121     -0.4514      0.0000
     2         O          1.1335     -0.1064     -0.0000
     3         O         -0.9624      0.5300      0.0000
     4         H         -0.3992     -1.4697      0.0001
     5         H         -1.8986      0.2164      0.0000

 General Reference for PM7:
 "Optimization of Parameters for Semiempirical Methods VI: More Modifications to the 
 NDDO Approximations and Re-optimization of Parameters", J. J. P. Stewart, J. Mol. Mod., 1:32, 19 (2013)
 https://link.springer.com/article/10.1007/s00894-012-1667-x

           Empirical Formula: C H2 O2  =     5 atoms



      MOLECULAR POINT GROUP   :   Cs  


      RHF CALCULATION, NO. OF DOUBLY OCCUPIED LEVELS = 9


          Geometry optimization using EF

          DIAGONAL MATRIX USED AS START HESSIAN

 CYCLE:     1 TIME:   0.004 TIME LEFT:  2.00D  GRAD.:     9.374 HEAT: -80.76452
 CYCLE:     2 TIME:   0.000 TIME LEFT:  2.00D  GRAD.:     8.833 HEAT: -80.78633
 CYCLE:     3 TIME:   0.000 TIME LEFT:  2.00D  GRAD.:     4.618 HEAT: -80.79488
 CYCLE:     4 TIME:   0.000 TIME LEFT:  2.00D  GRAD.:     1.802 HEAT: -80.79864
 CYCLE:     5 TIME:   0.000 TIME LEFT:  2.00D  GRAD.:     0.708 HEAT: -80.79987

     GRADIENT =  0.70762 IS LESS THAN CUTOFF =  1.00000



 -------------------------------------------------------------------------------
 pm7 threads=1 denout charge=0  cycles=5000
 title
 title


     GEOMETRY OPTIMISED USING EIGENVECTOR FOLLOWING (EF).     
     SCF FIELD WAS ACHIEVED                                   


                              PM7 CALCULATION
                                                       MOPAC2016 (Version: 21.129 )
                                                       Sun Nov 20 12:22:59 2022




          FINAL HEAT OF FORMATION =        -80.79987 KCAL/MOL =    -338.06666 KJ/MOL


          TOTAL ENERGY            =       -740.29053 EV
          ELECTRONIC ENERGY       =      -1636.54443 EV  POINT GROUP:     Cs  
          CORE-CORE REPULSION     =        896.25390 EV
          COSMO AREA              =         71.93 SQUARE ANGSTROMS
          COSMO VOLUME            =         52.88 CUBIC ANGSTROMS

          GRADIENT NORM           =          0.70762 = 0.31646 PER ATOM
          IONIZATION POTENTIAL    =         11.220303 EV
          HOMO LUMO ENERGIES (EV) =        -11.220  0.647
          NO. OF FILLED LEVELS    =          9
          MOLECULAR WEIGHT        =         46.0256

          MOLECULAR DIMENSIONS (Angstroms)

            Atom       Atom       Distance
            H     5    O     2     3.04171
            O     3    H     4     1.92586
            H     5    O     3     0.00000


          SCF CALCULATIONS        =          7
 
          WALL-CLOCK TIME         =          0.004 SECONDS
          COMPUTATION TIME        =          0.007 SECONDS




   ATOM   CHEMICAL          X               Y               Z
  NUMBER   SYMBOL      (ANGSTROMS)     (ANGSTROMS)     (ANGSTROMS)
 
     1       C         -0.01252806  *  -0.45146162  *   0.00001110  *
     2       O          1.13368176  *  -0.10660525  *  -0.00002051  *
     3       O         -0.96434810  *   0.52938640  *   0.00000021  *
     4       H         -0.39863315  *  -1.46837575  *   0.00004895  *
     5       H         -1.89060792  *   0.21847286  *   0.00002843  *

                             CARTESIAN COORDINATES

   1    C       -0.012528064    -0.451461624     0.000011099
   2    O        1.133681755    -0.106605248    -0.000020507
   3    O       -0.964348097     0.529386402     0.000000212
   4    H       -0.398633152    -1.468375750     0.000048953
   5    H       -1.890607921     0.218472858     0.000028429


           Empirical Formula: C H2 O2  =     5 atoms



      MOLECULAR POINT GROUP   :   Cs  


                  EIGENVALUES  
 -31.62896 -30.39936 -22.75436 -19.46993 -15.58067 -15.44059 -14.18040 -12.26006
 -11.22030   0.64663   1.90404   3.77678   4.48750   5.48816


              NET ATOMIC CHARGES AND DIPOLE CONTRIBUTIONS

  ATOM NO.   TYPE          CHARGE      No. of ELECS.   s-Pop       p-Pop       
    1          C           0.518398        3.4816     1.14065     2.34096
    2          O          -0.410968        6.4110     1.87639     4.53458
    3          O          -0.561815        6.5618     1.83064     4.73117
    4          H           0.115261        0.8847     0.88474
    5          H           0.339125        0.6609     0.66088
 DIPOLE           X         Y         Z       TOTAL
 POINT-CHG.    -2.967    -2.799     0.000     4.079
 HYBRID        -0.203     0.181    -0.000     0.272
 SUM           -3.170    -2.619     0.000     4.112


          ATOMIC ORBITAL ELECTRON POPULATIONS

     Atom    s        px        py        pz   
    1  C   1.14065   0.79326   0.86389   0.68380
    2  O   1.87639   1.27300   1.81431   1.44727
    3  O   1.83064   1.32368   1.53857   1.86893
    4  H   0.88474
    5  H   0.66088
 *******************************************************************************
 ** Site#:  999         For non-commercial use only           Version 21.129  **
 *******************************************************************************
 ** Cite this program as: MOPAC2016, Version: 21.129 , James J. P. Stewart,   **
 ** Stewart Computational Chemistry, web-site: HTTP://OpenMOPAC.net.          **
 *******************************************************************************
 **                                                                           **
 **                                MOPAC2016                                  **
 **                                                                           **
 *******************************************************************************

                              PM7 CALCULATION RESULTS

 *******************************************************************************
 *  CALCULATION DONE:                                Sun Nov 20 12:22:59 2022  *
 *  PM7        - The PM7 Hamiltonian to be used
 *
 *
 *
 *                 CHARGE ON SYSTEM = 0
 *
 *
 *
 *  LET        - OVERRIDE SOME SAFETY CHECKS
 *  OLDGEO     - PREVIOUS GEOMETRY TO BE USED
 *  FORCE      - FORCE CALCULATION SPECIFIED
 *  THREADS=1  - MULTI-THREADING NOT USED
 *  T=         - A TIME OF 172800.0 SECONDS REQUESTED
 *  DUMP=N     - RESTART FILE WRITTEN EVERY 7200.0 SECONDS REQUESTED
 *  OLDENS     - INITIAL DENSITY MATRIX READ OFF DISK
 *  THERMO     - THERMODYNAMIC QUANTITIES TO BE CALCULATED
 *******************************************************************************
  pm7 threads=1 oldens oldgeo charge=0 force let thermo(298,298)
 title
 title
   ATOM   CHEMICAL          X               Y               Z
  NUMBER   SYMBOL      (ANGSTROMS)     (ANGSTROMS)     (ANGSTROMS)
 
     1       C         -0.01252806  *  -0.45146162  *   0.00001110  *
     2       O          1.13368176  *  -0.10660525  *  -0.00002051  *
     3       O         -0.96434810  *   0.52938640  *   0.00000021  *
     4       H         -0.39863315  *  -1.46837575  *   0.00004895  *
     5       H         -1.89060792  *   0.21847286  *   0.00002843  *
 


          CARTESIAN COORDINATES 

    NO.       ATOM           X           Y           Z

     1         C         -0.0125     -0.4515      0.0000
     2         O          1.1337     -0.1066     -0.0000
     3         O         -0.9643      0.5294      0.0000
     4         H         -0.3986     -1.4684      0.0000
     5         H         -1.8906      0.2185      0.0000

 General Reference for PM7:
 "Optimization of Parameters for Semiempirical Methods VI: More Modifications to the 
 NDDO Approximations and Re-optimization of Parameters", J. J. P. Stewart, J. Mol. Mod., 1:32, 19 (2013)
 https://link.springer.com/article/10.1007/s00894-012-1667-x

           Empirical Formula: C H2 O2  =     5 atoms



      MOLECULAR POINT GROUP   :   Cs  


      RHF CALCULATION, NO. OF DOUBLY OCCUPIED LEVELS = 9



          HEAT OF FORMATION =     -80.799871 KCALS/MOLE


          CARTESIAN COORDINATE DERIVATIVES

   NUMBER  ATOM         X            Y            Z

     1       C     -0.137837    -0.422063    -0.000120
     2       O      0.396643    -0.050516     0.000052
     3       O     -0.105331     0.131568     0.000010
     4       H      0.120471     0.144524     0.000039
     5       H     -0.273947     0.196486     0.000018
 


          GRADIENT NORM =   0.73108

          MOLECULAR WEIGHT =   46.03



          ROTATIONAL CONSTANTS IN CM(-1)

          A =    2.64497419   B =    0.39978651   C =    0.34729330



           PRINCIPAL MOMENTS OF INERTIA IN UNITS OF 10**(-40)*GRAM-CM**2

          A =       10.5834   B =       70.0193   C =       80.6027


          ORIENTATION OF MOLECULE IN FORCE CALCULATION

    NO.       ATOM         X         Y         Z

     1          C      -0.1478   -0.4288   -0.0000
     2          O       1.0492   -0.4288   -0.0000
     3          O      -0.7767    0.7846   -0.0000
     4          H      -0.8105   -1.2914    0.0000
     5          H      -1.7532    0.7538    0.0000


    FIRST DERIVATIVES WILL BE USED IN THE CALCULATION OF SECOND DERIVATIVES

          ESTIMATED TIME TO COMPLETE CALCULATION =        0.00 SECONDS

    FOR POINT-GROUP Cs   THERE ARE   2 UNIQUE SYMMETRY FUNCTIONS.

 STEP:   1 TIME =     0.00 SECS, INTEGRAL =      0.00 TIME LEFT: 172800.00
 STEP:   2 TIME =     0.00 SECS, INTEGRAL =      0.00 TIME LEFT: 172800.00
 STEP:   3 TIME =     0.00 SECS, INTEGRAL =      0.00 TIME LEFT: 172800.00
 STEP:   4 TIME =     0.00 SECS, INTEGRAL =      0.00 TIME LEFT: 172800.00
 STEP:   5 TIME =     0.00 SECS, INTEGRAL =      0.00 TIME LEFT: 172800.00
 STEP:   6 TIME =     0.00 SECS, INTEGRAL =      0.00 TIME LEFT: 172800.00
 STEP:   7 TIME =     0.00 SECS, INTEGRAL =      0.01 TIME LEFT: 172799.99
 STEP:   8 TIME =     0.00 SECS, INTEGRAL =      0.01 TIME LEFT: 172799.99
 STEP:   9 TIME =     0.00 SECS, INTEGRAL =      0.01 TIME LEFT: 172799.99
 STEP:  10 TIME =     0.00 SECS, INTEGRAL =      0.01 TIME LEFT: 172799.99
 STEP:  11 TIME =     0.00 SECS, INTEGRAL =      0.01 TIME LEFT: 172799.99
 STEP:  12 TIME =     0.00 SECS, INTEGRAL =      0.01 TIME LEFT: 172799.99
 STEP:  13 TIME =     0.00 SECS, INTEGRAL =      0.01 TIME LEFT: 172799.99
 STEP:  14 TIME =     0.00 SECS, INTEGRAL =      0.01 TIME LEFT: 172799.99
 STEP:  15 TIME =     0.00 SECS, INTEGRAL =      0.01 TIME LEFT: 172799.99

(To convert to Hartree/Bohr^2, multiply by (10^(-21) x N x a0^2)/(4.184 x 627.51) =  0.0642)


           FORCE MATRIX IN MILLIDYNES/ANGSTROM


                  C  1       O  2       O  3       H  4       H  5
 ------------------------------------------------------------------
     C    1  17.630912
     O    2  12.748050  14.696628
     O    3   4.762149   1.963910   8.679521
     H    4   3.211906   0.841211   0.664267   4.002183
     H    5   1.005171   0.245581   3.818156   0.084666   4.435299


          HEAT OF FORMATION =     -80.799871 KCALS/MOLE

          ZERO POINT ENERGY      18.156 KCAL/MOL


           NORMAL COORDINATE ANALYSIS (Total motion = 1 Angstrom)


   Root No.       1         2         3         4         5         6         7         8

                 1 A"      1 A'      2 A"      2 A'      3 A'      4 A'      5 A'      6 A'  

                 366.3     562.6     947.3    1119.2    1201.0    1236.5    1838.2    2642.6
  
           1   -0.0000   -0.0873   -0.0000    0.0048    0.0213   -0.0401    0.3405   -0.0471
           2   -0.0000   -0.1453   -0.0000    0.0916   -0.1088    0.0999   -0.0218   -0.0486
           3   -0.0278   -0.0000   -0.1622   -0.0000   -0.0000    0.0000   -0.0000    0.0000
           4    0.0000   -0.0888    0.0000    0.0191    0.0413   -0.0448   -0.2539    0.0037
           5    0.0000    0.1539    0.0000   -0.0122   -0.0106   -0.0233   -0.0033   -0.0021
           6    0.0328    0.0000    0.0443    0.0000    0.0000    0.0000    0.0000    0.0000
           7   -0.0000    0.1478    0.0000   -0.0196   -0.0688    0.0337   -0.0182    0.0049
           8   -0.0000   -0.0549    0.0000   -0.1043    0.0796   -0.0227    0.0017   -0.0030
           9   -0.0524    0.0000    0.0293    0.0000    0.0000   -0.0000    0.0000    0.0000
          10   -0.0000   -0.0534    0.0000   -0.0801    0.2093    0.6463    0.1558    0.5097
          11   -0.0000   -0.1434    0.0000    0.1450   -0.2287   -0.4445    0.1870    0.6643
          12   -0.1222   -0.0000    0.7180   -0.0000   -0.0000   -0.0000    0.0000   -0.0000
          13    0.0000    0.1561    0.0000    0.0321   -0.0251    0.0087    0.1049   -0.0850
          14    0.0000    0.3044    0.0000    0.6131    0.4306   -0.0144    0.0975   -0.0034
          15    0.7648   -0.0000    0.0461   -0.0000   -0.0000   -0.0000    0.0000    0.0000


   Root No.       9

                 7 A'  

                2786.8
  
           1   -0.0216
           2    0.0000
           3   -0.0000
           4    0.0065
           5   -0.0006
           6    0.0000
           7   -0.0470
           8    0.0017
           9    0.0000
          10    0.0542
          11    0.0532
          12   -0.0000
          13    0.8460
          14   -0.0705
          15   -0.0000


           MASS-WEIGHTED COORDINATE ANALYSIS (NORMAL COORDINATES)


   Root No.       1         2         3         4         5         6         7         8

                 1 A"      1 A'      2 A"      2 A'      3 A'      4 A'      5 A'      6 A'  

                 366.3     562.6     947.3    1119.2    1201.0    1236.5    1838.2    2642.6
  
           1   -0.0000   -0.2567   -0.0000    0.0198    0.0922   -0.1528    0.7440   -0.1859
           2   -0.0000   -0.4271   -0.0000    0.3801   -0.4719    0.3807   -0.0476   -0.1919
           3   -0.1173   -0.0000   -0.5983   -0.0000   -0.0000    0.0000   -0.0000    0.0000
           4    0.0000   -0.3012    0.0000    0.0913    0.2066   -0.1972   -0.6403    0.0167
           5    0.0000    0.5221    0.0000   -0.0584   -0.0532   -0.1026   -0.0083   -0.0098
           6    0.1598    0.0000    0.1887    0.0000    0.0000    0.0000    0.0000    0.0000
           7   -0.0000    0.5017    0.0000   -0.0940   -0.3446    0.1481   -0.0458    0.0224
           8   -0.0000   -0.1865    0.0000   -0.4998    0.3984   -0.1000    0.0044   -0.0138
           9   -0.2552    0.0000    0.1248    0.0000    0.0000   -0.0000    0.0000    0.0000
          10   -0.0000   -0.0455    0.0000   -0.0964    0.2631    0.7136    0.0986    0.5833
          11   -0.0000   -0.1222    0.0000    0.1744   -0.2875   -0.4908    0.1184    0.7602
          12   -0.1493   -0.0000    0.7670   -0.0000   -0.0000   -0.0000    0.0000   -0.0000
          13    0.0000    0.1329    0.0000    0.0386   -0.0315    0.0096    0.0664   -0.0973
          14    0.0000    0.2593    0.0000    0.7373    0.5412   -0.0159    0.0617   -0.0039
          15    0.9345   -0.0000    0.0493   -0.0000   -0.0000   -0.0000    0.0000    0.0000


   Root No.       9

                 7 A'  

                2786.8
  
           1   -0.0851
           2    0.0001
           3   -0.0000
           4    0.0296
           5   -0.0029
           6    0.0000
           7   -0.2137
           8    0.0078
           9    0.0000
          10    0.0618
          11    0.0607
          12   -0.0000
          13    0.9655
          14   -0.0804
          15   -0.0000


          DESCRIPTION OF VIBRATIONS


 VIBRATION          1    1A"         ATOM PAIR     ENERGY CONTRIBUTION    RADIAL
 FREQUENCY           366.29         O 3 -- H 5         +89.8% ( 93.9%)      0.0%
 TRANSITION DIPOLE   0.8673         C 1 -- O 2          +7.0% ( 26.3%)      0.0%
 TRAVEL (Ang.)       0.4654         C 1 -- O 3          +1.6% ( 12.7%)      0.0%
 REDUCED MASS        0.8497         C 1 -- H 4          +1.5% ( 12.3%)      0.0%
 EFFECTIVE MASS      1.8984
 FORCE CONSTANT      0.0672

 VIBRATION          2    1A'         ATOM PAIR     ENERGY CONTRIBUTION    RADIAL
 FREQUENCY           562.57         C 1 -- O 3         +38.2% (118.9%)      2.9%
 TRANSITION DIPOLE   0.4332         C 1 -- O 2         +27.0% (100.0%)      0.2%
 TRAVEL (Ang.)       0.1695         C 1 -- H 4         +22.2% ( 90.7%)     99.8%
 REDUCED MASS        4.1733         O 3 -- H 5         +12.6% ( 68.3%)     37.5%
 EFFECTIVE MASS     19.6921
 FORCE CONSTANT      0.7782

 VIBRATION          3    2A"         ATOM PAIR     ENERGY CONTRIBUTION    RADIAL
 FREQUENCY           947.26         C 1 -- H 4         +75.1% ( 94.7%)      0.0%
 TRANSITION DIPOLE   0.0976         C 1 -- O 2         +13.1% ( 39.6%)      0.0%
 TRAVEL (Ang.)       0.1929         C 1 -- O 3         +11.7% ( 37.4%)      0.0%
 REDUCED MASS        1.9126
 EFFECTIVE MASS      4.1621
 FORCE CONSTANT      1.0111

 VIBRATION          4    2A'         ATOM PAIR     ENERGY CONTRIBUTION    RADIAL
 FREQUENCY          1119.18         O 3 -- H 5         +54.3% ( 85.4%)      1.9%
 TRANSITION DIPOLE   1.1455         C 1 -- O 3         +27.6% ( 61.0%)     67.5%
 TRAVEL (Ang.)       0.1925         C 1 -- O 2          +9.4% ( 35.6%)      2.6%
 REDUCED MASS        1.6252         C 1 -- H 4          +8.7% ( 34.2%)     98.0%
 EFFECTIVE MASS      6.1078
 FORCE CONSTANT      1.1994

 VIBRATION          5    3A'         ATOM PAIR     ENERGY CONTRIBUTION    RADIAL
 FREQUENCY          1201.04         C 1 -- O 3         +38.6% ( 72.1%)    100.0%
 TRANSITION DIPOLE   0.9682         O 3 -- H 5         +29.1% ( 62.7%)     85.1%
 TRAVEL (Ang.)       0.1668         C 1 -- H 4         +18.4% ( 49.7%)     99.2%
 REDUCED MASS        2.0179         C 1 -- O 2         +13.9% ( 43.3%)      6.9%
 EFFECTIVE MASS      8.3907
 FORCE CONSTANT      1.7150

 VIBRATION          6    4A'         ATOM PAIR     ENERGY CONTRIBUTION    RADIAL
 FREQUENCY          1236.55         C 1 -- H 4         +72.9% ( 94.8%)      1.8%
 TRANSITION DIPOLE   1.0135         C 1 -- O 3         +15.8% ( 44.1%)     99.3%
 TRAVEL (Ang.)       0.2380         C 1 -- O 2         +10.1% ( 35.2%)      0.8%
 REDUCED MASS        0.9624         O 3 -- H 5          +1.2% ( 12.3%)     70.2%
 EFFECTIVE MASS      3.6814
 FORCE CONSTANT      0.8671

 VIBRATION          7    5A'         ATOM PAIR     ENERGY CONTRIBUTION    RADIAL
 FREQUENCY          1838.21         C 1 -- O 2         +57.3% ( 99.6%)     99.9%
 TRANSITION DIPOLE   4.5843         C 1 -- O 3         +21.4% ( 60.9%)     26.8%
 TRAVEL (Ang.)       0.0757         C 1 -- H 4         +20.5% ( 59.6%)     15.4%
 REDUCED MASS        6.4021         O 3 -- H 5          +0.8% ( 11.5%)     81.8%
 EFFECTIVE MASS     13.3647
 FORCE CONSTANT     12.7457

 VIBRATION          8    6A'         ATOM PAIR     ENERGY CONTRIBUTION    RADIAL
 FREQUENCY          2642.55         C 1 -- H 4         +95.6% ( 99.5%)     99.9%
 TRANSITION DIPOLE   0.2374         C 1 -- O 2          +1.8% ( 13.5%)     55.3%
 TRAVEL (Ang.)       0.1674         C 1 -- O 3          +1.6% ( 12.8%)      5.2%
 REDUCED MASS        0.9108         O 3 -- H 5          +1.1% ( 10.5%)     98.7%
 EFFECTIVE MASS      1.4772
 FORCE CONSTANT      3.7474

 VIBRATION          9    7A'         ATOM PAIR     ENERGY CONTRIBUTION    RADIAL
 FREQUENCY          2786.78         O 3 -- H 5         +98.1% ( 99.0%)     98.9%
 TRANSITION DIPOLE   1.4078         C 1 -- H 4          +1.0% ( 10.1%)     74.9%
 TRAVEL (Ang.)       0.1620         C 1 -- O 3          +0.5% (  7.4%)     26.3%
 REDUCED MASS        0.9222         C 1 -- O 2          +0.3% (  5.7%)     99.9%
 EFFECTIVE MASS      1.3792
 FORCE CONSTANT      4.2195

      SYMMETRY NUMBER FOR POINT-GROUP Cs  =  1


          SYSTEM IS A GROUND STATE


 title
 title


          MOLECULE IS NOT LINEAR

          THERE ARE  9 GENUINE VIBRATIONS IN THIS SYSTEM
          THIS THERMODYNAMICS CALCULATION IS LIMITED TO
          MOLECULES WHICH HAVE NO INTERNAL ROTATIONS




                    CALCULATED THERMODYNAMIC PROPERTIES
                                          *
   TEMP. (K)   PARTITION FUNCTION   H.O.F.    ENTHALPY  HEAT CAPACITY ENTROPY
                                   KCAL/MOL   CAL/MOLE    CAL/K/MOL  CAL/K/MOL


 298.00  VIB.     0.1318D+01                   392.2765     3.7634     1.8650
         ROT.     0.8718D+04                   888.2813     2.9808    21.0111
         INT.     0.1149D+05                  1280.5578     6.7442    22.8761
         TRA.     0.3019D+27                  1480.4688     4.9680    37.4027
         TOT.                      -80.800    2761.0266    11.7122    60.2788

   *: NOTE: HEATS OF FORMATION ARE RELATIVE TO THE
            ELEMENTS IN THEIR STANDARD STATE AT 298K
              (=  Standard Enthalpy of Formation).

            Hvib:  Zero-point energy is not included.
                   frequencies of less than zero cm-1 are not included.
            Hrot = (3/2)RT
            Htra = (3/2)RT + pV = (5/2)RT

            Heat capacity is Cp, not Cv

          For more information, see: HTTP://OpenMOPAC.net/Manual/thermochemistry.html


           FORCE CONSTANT IN CARTESIAN COORDINATES (Millidynes/A)

    ATOM   CHEMICAL       X               Y               Z
   NUMBER   SYMBOL  FORCE CONSTANT  FORCE CONSTANT  FORCE CONSTANT

      1       C       15.835207        7.404363        2.291370
      2       O       14.650501        1.054455        0.338349
      3       O        6.227524        5.371775        0.216108
      4       H        1.976670        2.756505        0.316353
      5       H        4.352594        0.705882        0.070991

 **********************
 *                    *
 * JOB ENDED NORMALLY *
 *                    *
 **********************



 TOTAL JOB TIME:             0.03 SECONDS

 == MOPAC DONE ==
