 *******************************************************************************
 ** Site#:  999         For non-commercial use only           Version 21.129  **
 *******************************************************************************
 ** Cite this program as: MOPAC2016, Version: 21.129 , James J. P. Stewart,   **
 ** Stewart Computational Chemistry, web-site: HTTP://OpenMOPAC.net.          **
 *******************************************************************************
 **                                                                           **
 **                                MOPAC2016                                  **
 **                                                                           **
 *******************************************************************************

                              PM7 CALCULATION RESULTS

 *******************************************************************************
 *  CALCULATION DONE:                                Sun Nov 20 12:22:59 2022  *
 *  PM7        - The PM7 Hamiltonian to be used
 *
 *
 *
 *                 CHARGE ON SYSTEM = 0
 *
 *
 *
 *  THREADS=1  - MULTI-THREADING NOT USED
 *  T=         - A TIME OF 172800.0 SECONDS REQUESTED
 *  DUMP=N     - RESTART FILE WRITTEN EVERY 7200.0 SECONDS REQUESTED
 *  CYCLES=    - DO A MAXIMUM OF 5000 STEPS
 *  DENOUT     - SAVE DENSITY MATRIX FOR USE LATER
 *******************************************************************************
   pm7 threads=1 denout charge=0  cycles=5000
 title
 title
   ATOM   CHEMICAL          X               Y               Z
  NUMBER   SYMBOL      (ANGSTROMS)     (ANGSTROMS)     (ANGSTROMS)
 
     1       C         -0.21972000  *  -0.40081000  *  -0.00003000  *
     2       O          0.96595000  *  -0.58666000  *   0.00000000  *
     3       O         -0.73932000  *   0.84777000  *   0.00002000  *
     4       H         -1.03824000  *  -1.11487000  *  -0.00008000  *
     5       H         -0.06438000  *   1.58396000  *   0.00007000  *
 


          CARTESIAN COORDINATES 

    NO.       ATOM           X           Y           Z

     1         C         -0.2197     -0.4008     -0.0000
     2         O          0.9659     -0.5867      0.0000
     3         O         -0.7393      0.8478      0.0000
     4         H         -1.0382     -1.1149     -0.0001
     5         H         -0.0644      1.5840      0.0001

 General Reference for PM7:
 "Optimization of Parameters for Semiempirical Methods VI: More Modifications to the 
 NDDO Approximations and Re-optimization of Parameters", J. J. P. Stewart, J. Mol. Mod., 1:32, 19 (2013)
 https://link.springer.com/article/10.1007/s00894-012-1667-x

           Empirical Formula: C H2 O2  =     5 atoms



      MOLECULAR POINT GROUP   :   Cs  


      RHF CALCULATION, NO. OF DOUBLY OCCUPIED LEVELS = 9


          Geometry optimization using EF

          DIAGONAL MATRIX USED AS START HESSIAN

 CYCLE:     1 TIME:   0.000 TIME LEFT:  2.00D  GRAD.:     9.134 HEAT: -89.50788
 CYCLE:     2 TIME:   0.000 TIME LEFT:  2.00D  GRAD.:     5.126 HEAT: -89.53551
 CYCLE:     3 TIME:   0.000 TIME LEFT:  2.00D  GRAD.:     4.183 HEAT: -89.54006
 CYCLE:     4 TIME:   0.000 TIME LEFT:  2.00D  GRAD.:     3.233 HEAT: -89.54142
 CYCLE:     5 TIME:   0.000 TIME LEFT:  2.00D  GRAD.:     1.785 HEAT: -89.54450
 CYCLE:     6 TIME:   0.000 TIME LEFT:  2.00D  GRAD.:     3.340 HEAT: -89.54313
 CYCLE:     7 TIME:   0.000 TIME LEFT:  2.00D  GRAD.:     0.198 HEAT: -89.54496

     GRADIENT =  0.19788 IS LESS THAN CUTOFF =  1.00000



 -------------------------------------------------------------------------------
 pm7 threads=1 denout charge=0  cycles=5000
 title
 title


     GEOMETRY OPTIMISED USING EIGENVECTOR FOLLOWING (EF).     
     SCF FIELD WAS ACHIEVED                                   


                              PM7 CALCULATION
                                                       MOPAC2016 (Version: 21.129 )
                                                       Sun Nov 20 12:22:59 2022




          FINAL HEAT OF FORMATION =        -89.54496 KCAL/MOL =    -374.65612 KJ/MOL


          TOTAL ENERGY            =       -740.66998 EV
          ELECTRONIC ENERGY       =      -1640.96947 EV  POINT GROUP:     Cs  
          CORE-CORE REPULSION     =        900.29949 EV
          COSMO AREA              =         71.84 SQUARE ANGSTROMS
          COSMO VOLUME            =         52.97 CUBIC ANGSTROMS

          GRADIENT NORM           =          0.19788 = 0.08850 PER ATOM
          IONIZATION POTENTIAL    =         11.528822 EV
          HOMO LUMO ENERGIES (EV) =        -11.529  0.605
          NO. OF FILLED LEVELS    =          9
          MOLECULAR WEIGHT        =         46.0256

          MOLECULAR DIMENSIONS (Angstroms)

            Atom       Atom       Distance
            H     5    H     4     2.86101
            O     3    O     2     2.08997
            H     4    O     3     0.00000


          SCF CALCULATIONS        =          8
 
          WALL-CLOCK TIME         =          0.008 SECONDS
          COMPUTATION TIME        =          0.007 SECONDS




   ATOM   CHEMICAL          X               Y               Z
  NUMBER   SYMBOL      (ANGSTROMS)     (ANGSTROMS)     (ANGSTROMS)
 
     1       C         -0.21967736  *  -0.40002202  *  -0.00002638  *
     2       O          0.96592211  *  -0.58636065  *  -0.00000127  *
     3       O         -0.73819238  *   0.84906263  *   0.00001868  *
     4       H         -1.03878344  *  -1.11568801  *  -0.00008355  *
     5       H         -0.06836529  *   1.57571503  *   0.00007134  *

                             CARTESIAN COORDINATES

   1    C       -0.219677362    -0.400022017    -0.000026376
   2    O        0.965922109    -0.586360648    -0.000001268
   3    O       -0.738192384     0.849062629     0.000018682
   4    H       -1.038783443    -1.115688006    -0.000083547
   5    H       -0.068365293     1.575715027     0.000071336


           Empirical Formula: C H2 O2  =     5 atoms



      MOLECULAR POINT GROUP   :   Cs  


                  EIGENVALUES  
 -31.81711 -30.20758 -23.40529 -17.78036 -17.10987 -15.58705 -13.90022 -12.42067
 -11.52882   0.60509   2.09526   3.84294   4.64649   5.32738


              NET ATOMIC CHARGES AND DIPOLE CONTRIBUTIONS

  ATOM NO.   TYPE          CHARGE      No. of ELECS.   s-Pop       p-Pop       
    1          C           0.541449        3.4586     1.14816     2.31039
    2          O          -0.489267        6.4893     1.87586     4.61341
    3          O          -0.565428        6.5654     1.83557     4.72986
    4          H           0.156459        0.8435     0.84354
    5          H           0.356787        0.6432     0.64321
 DIPOLE           X         Y         Z       TOTAL
 POINT-CHG.    -1.734    -0.106    -0.000     1.738
 HYBRID         0.379     0.429     0.000     0.572
 SUM           -1.355     0.322    -0.000     1.393


          ATOMIC ORBITAL ELECTRON POPULATIONS

     Atom    s        px        py        pz   
    1  C   1.14816   0.85868   0.79466   0.65705
    2  O   1.87586   1.29160   1.83776   1.48404
    3  O   1.83557   1.53681   1.33414   1.85891
    4  H   0.84354
    5  H   0.64321
 *******************************************************************************
 ** Site#:  999         For non-commercial use only           Version 21.129  **
 *******************************************************************************
 ** Cite this program as: MOPAC2016, Version: 21.129 , James J. P. Stewart,   **
 ** Stewart Computational Chemistry, web-site: HTTP://OpenMOPAC.net.          **
 *******************************************************************************
 **                                                                           **
 **                                MOPAC2016                                  **
 **                                                                           **
 *******************************************************************************

                              PM7 CALCULATION RESULTS

 *******************************************************************************
 *  CALCULATION DONE:                                Sun Nov 20 12:22:59 2022  *
 *  PM7        - The PM7 Hamiltonian to be used
 *
 *
 *
 *                 CHARGE ON SYSTEM = 0
 *
 *
 *
 *  LET        - OVERRIDE SOME SAFETY CHECKS
 *  OLDGEO     - PREVIOUS GEOMETRY TO BE USED
 *  FORCE      - FORCE CALCULATION SPECIFIED
 *  THREADS=1  - MULTI-THREADING NOT USED
 *  T=         - A TIME OF 172800.0 SECONDS REQUESTED
 *  DUMP=N     - RESTART FILE WRITTEN EVERY 7200.0 SECONDS REQUESTED
 *  OLDENS     - INITIAL DENSITY MATRIX READ OFF DISK
 *  THERMO     - THERMODYNAMIC QUANTITIES TO BE CALCULATED
 *******************************************************************************
  pm7 threads=1 oldens oldgeo charge=0 force let thermo(298,298)
 title
 title
   ATOM   CHEMICAL          X               Y               Z
  NUMBER   SYMBOL      (ANGSTROMS)     (ANGSTROMS)     (ANGSTROMS)
 
     1       C         -0.21967736  *  -0.40002202  *  -0.00002638  *
     2       O          0.96592211  *  -0.58636065  *  -0.00000127  *
     3       O         -0.73819238  *   0.84906263  *   0.00001868  *
     4       H         -1.03878344  *  -1.11568801  *  -0.00008355  *
     5       H         -0.06836529  *   1.57571503  *   0.00007134  *
 


          CARTESIAN COORDINATES 

    NO.       ATOM           X           Y           Z

     1         C         -0.2197     -0.4000     -0.0000
     2         O          0.9659     -0.5864     -0.0000
     3         O         -0.7382      0.8491      0.0000
     4         H         -1.0388     -1.1157     -0.0001
     5         H         -0.0684      1.5757      0.0001

 General Reference for PM7:
 "Optimization of Parameters for Semiempirical Methods VI: More Modifications to the 
 NDDO Approximations and Re-optimization of Parameters", J. J. P. Stewart, J. Mol. Mod., 1:32, 19 (2013)
 https://link.springer.com/article/10.1007/s00894-012-1667-x

           Empirical Formula: C H2 O2  =     5 atoms



      MOLECULAR POINT GROUP   :   Cs  


      RHF CALCULATION, NO. OF DOUBLY OCCUPIED LEVELS = 9



          HEAT OF FORMATION =     -89.544961 KCALS/MOLE


          CARTESIAN COORDINATE DERIVATIVES

   NUMBER  ATOM         X            Y            Z

     1       C     -0.047556     0.042559    -0.000072
     2       O     -0.101746     0.025865     0.000023
     3       O     -0.072057    -0.090128    -0.000003
     4       H      0.094220    -0.009896     0.000048
     5       H      0.127139     0.031598     0.000005
 


          GRADIENT NORM =   0.23355


          TIME FOR SCF CALCULATION =    0.00

          TIME FOR DERIVATIVES     =    0.00

          MOLECULAR WEIGHT =   46.03



          ROTATIONAL CONSTANTS IN CM(-1)

          A =    2.41140175   B =    0.41075560   C =    0.35097149



           PRINCIPAL MOMENTS OF INERTIA IN UNITS OF 10**(-40)*GRAM-CM**2

          A =       11.6085   B =       68.1495   C =       79.7580


          ORIENTATION OF MOLECULE IN FORCE CALCULATION

    NO.       ATOM         X         Y         Z

     1          C      -0.1530   -0.4259   -0.0000
     2          O       1.0472   -0.4259   -0.0000
     3          O      -0.8592    0.7275   -0.0000
     4          H      -0.8510   -1.2601    0.0000
     5          H      -0.3103    1.5493   -0.0000


    FIRST DERIVATIVES WILL BE USED IN THE CALCULATION OF SECOND DERIVATIVES

          ESTIMATED TIME TO COMPLETE CALCULATION =        0.12 SECONDS

    FOR POINT-GROUP Cs   THERE ARE   2 UNIQUE SYMMETRY FUNCTIONS.

 STEP:   1 TIME =     0.00 SECS, INTEGRAL =      0.00 TIME LEFT: 172800.00
 STEP:   2 TIME =     0.00 SECS, INTEGRAL =      0.00 TIME LEFT: 172800.00
 STEP:   3 TIME =     0.00 SECS, INTEGRAL =      0.00 TIME LEFT: 172800.00
 STEP:   4 TIME =     0.00 SECS, INTEGRAL =      0.00 TIME LEFT: 172799.99
 STEP:   5 TIME =     0.00 SECS, INTEGRAL =      0.00 TIME LEFT: 172799.99
 STEP:   6 TIME =     0.00 SECS, INTEGRAL =      0.00 TIME LEFT: 172799.99
 STEP:   7 TIME =     0.00 SECS, INTEGRAL =      0.00 TIME LEFT: 172799.99
 STEP:   8 TIME =     0.00 SECS, INTEGRAL =      0.01 TIME LEFT: 172799.99
 STEP:   9 TIME =     0.00 SECS, INTEGRAL =      0.01 TIME LEFT: 172799.99
 STEP:  10 TIME =     0.00 SECS, INTEGRAL =      0.01 TIME LEFT: 172799.98
 STEP:  11 TIME =     0.00 SECS, INTEGRAL =      0.01 TIME LEFT: 172799.98
 STEP:  12 TIME =     0.00 SECS, INTEGRAL =      0.01 TIME LEFT: 172799.98
 STEP:  13 TIME =     0.00 SECS, INTEGRAL =      0.01 TIME LEFT: 172799.98
 STEP:  14 TIME =     0.00 SECS, INTEGRAL =      0.02 TIME LEFT: 172799.98
 STEP:  15 TIME =     0.00 SECS, INTEGRAL =      0.02 TIME LEFT: 172799.98

(To convert to Hartree/Bohr^2, multiply by (10^(-21) x N x a0^2)/(4.184 x 627.51) =  0.0642)


           FORCE MATRIX IN MILLIDYNES/ANGSTROM


                  C  1       O  2       O  3       H  4       H  5
 ------------------------------------------------------------------
     C    1  17.942454
     O    2  12.710318  14.516765
     O    3   5.136023   1.859782   9.019385
     H    4   3.253923   0.757836   0.748643   4.049759
     H    5   1.207216   0.200565   3.795762   0.143743   4.467934


          HEAT OF FORMATION =     -89.544961 KCALS/MOLE

          ZERO POINT ENERGY      18.582 KCAL/MOL


           NORMAL COORDINATE ANALYSIS (Total motion = 1 Angstrom)


   Root No.       1         2         3         4         5         6         7         8

                 1 A'      1 A"      2 A"      2 A'      3 A'      4 A'      5 A'      6 A'  

                 551.3     591.8     957.5    1063.1    1233.0    1308.8    1840.4    2663.4
  
           1   -0.0795    0.0000   -0.0000    0.0056   -0.0405   -0.0118    0.3192   -0.0524
           2   -0.1297    0.0000   -0.0000   -0.0193    0.1330    0.1073   -0.0164   -0.0465
           3    0.0000    0.0709   -0.1409    0.0000   -0.0000   -0.0000   -0.0000   -0.0000
           4   -0.0766   -0.0000    0.0000    0.0299   -0.0622    0.0103   -0.2349    0.0064
           5    0.1341   -0.0000    0.0000   -0.0219   -0.0175   -0.0015   -0.0014   -0.0018
           6   -0.0000   -0.0327    0.0368    0.0000    0.0000   -0.0000    0.0000    0.0000
           7    0.1132   -0.0000    0.0000   -0.0787    0.0656   -0.0144   -0.0208    0.0024
           8   -0.0163   -0.0000    0.0000    0.0642   -0.0647   -0.0781    0.0065   -0.0002
           9   -0.0000   -0.0724    0.0183   -0.0000   -0.0000    0.0000    0.0000    0.0000
          10   -0.0259    0.0000    0.0000    0.3147    0.5094   -0.2043    0.1291    0.5270
          11   -0.1467    0.0000    0.0000   -0.2587   -0.3316    0.2429    0.2216    0.6542
          12   -0.0000    0.1075    0.6845    0.0000    0.0000   -0.0000   -0.0000   -0.0000
          13    0.3918    0.0000    0.0000    0.3935   -0.0813    0.4108    0.1279   -0.0428
          14   -0.1774    0.0000    0.0000   -0.1829    0.0519   -0.2571   -0.1078   -0.0686
          15    0.0000    0.7164    0.1195   -0.0000   -0.0000   -0.0000   -0.0000    0.0000


   Root No.       9

                 7 A'  

                2789.0
  
           1   -0.0002
           2   -0.0168
           3   -0.0000
           4   -0.0023
           5    0.0000
           6    0.0000
           7   -0.0243
           8   -0.0398
           9    0.0000
          10    0.0398
          11    0.0611
          12   -0.0000
          13    0.3853
          14    0.7703
          15   -0.0000


           MASS-WEIGHTED COORDINATE ANALYSIS (NORMAL COORDINATES)


   Root No.       1         2         3         4         5         6         7         8

                 1 A'      1 A"      2 A"      2 A'      3 A'      4 A'      5 A'      6 A'  

                 551.3     591.8     957.5    1063.1    1233.0    1308.8    1840.4    2663.4
  
           1   -0.2654    0.0000   -0.0000    0.0261   -0.1553   -0.0537    0.7437   -0.2060
           2   -0.4331    0.0000   -0.0000   -0.0902    0.5102    0.4880   -0.0383   -0.1826
           3    0.0000    0.2957   -0.5631    0.0000   -0.0000   -0.0000   -0.0000   -0.0000
           4   -0.2950   -0.0000    0.0000    0.1615   -0.2752    0.0541   -0.6319    0.0290
           5    0.5167   -0.0000    0.0000   -0.1181   -0.0775   -0.0081   -0.0036   -0.0084
           6   -0.0000   -0.1576    0.1699    0.0000    0.0000   -0.0000    0.0000    0.0000
           7    0.4361   -0.0000    0.0000   -0.4250    0.2904   -0.0758   -0.0561    0.0111
           8   -0.0628   -0.0000    0.0000    0.3464   -0.2865   -0.4100    0.0176   -0.0007
           9   -0.0000   -0.3485    0.0844   -0.0000   -0.0000    0.0000    0.0000    0.0000
          10   -0.0251    0.0000    0.0000    0.4265    0.5659   -0.2691    0.0871    0.6000
          11   -0.1419    0.0000    0.0000   -0.3505   -0.3684    0.3199    0.1496    0.7448
          12   -0.0000    0.1299    0.7924    0.0000    0.0000   -0.0000   -0.0000   -0.0000
          13    0.3790    0.0000    0.0000    0.5333   -0.0903    0.5410    0.0863   -0.0487
          14   -0.1716    0.0000    0.0000   -0.2479    0.0576   -0.3386   -0.0728   -0.0781
          15    0.0000    0.8657    0.1383   -0.0000   -0.0000   -0.0000   -0.0000    0.0000


   Root No.       9

                 7 A'  

                2789.0
  
           1   -0.0008
           2   -0.0655
           3   -0.0000
           4   -0.0105
           5    0.0002
           6    0.0000
           7   -0.1092
           8   -0.1789
           9    0.0000
          10    0.0450
          11    0.0690
          12   -0.0000
          13    0.4348
          14    0.8694
          15   -0.0000


          DESCRIPTION OF VIBRATIONS


 VIBRATION          1    1A'         ATOM PAIR     ENERGY CONTRIBUTION    RADIAL
 FREQUENCY           551.31         C 1 -- O 3         +35.6% (121.8%)      0.4%
 TRANSITION DIPOLE   1.0038         C 1 -- O 2         +27.0% (106.1%)      0.1%
 TRAVEL (Ang.)       0.1886         C 1 -- H 4         +23.7% ( 99.3%)    100.0%
 REDUCED MASS        3.4388         O 3 -- H 5         +13.8% ( 75.7%)     98.9%
 EFFECTIVE MASS     17.6545
 FORCE CONSTANT      0.6158

 VIBRATION          2    1A"         ATOM PAIR     ENERGY CONTRIBUTION    RADIAL
 FREQUENCY           591.82         O 3 -- H 5         +74.0% ( 88.6%)      0.0%
 TRANSITION DIPOLE   1.3032         C 1 -- O 3         +13.6% ( 37.9%)      0.0%
 TRAVEL (Ang.)       0.3550         C 1 -- O 2         +10.4% ( 33.2%)      0.0%
 REDUCED MASS        0.9040         C 1 -- H 4          +2.1% ( 14.9%)      0.0%
 EFFECTIVE MASS      3.6147
 FORCE CONSTANT      0.1866

 VIBRATION          3    2A"         ATOM PAIR     ENERGY CONTRIBUTION    RADIAL
 FREQUENCY           957.47         C 1 -- H 4         +77.7% ( 94.7%)      0.0%
 TRANSITION DIPOLE   0.0902         C 1 -- O 2         +11.6% ( 36.6%)      0.0%
 TRAVEL (Ang.)       0.2086         C 1 -- O 3         +10.4% ( 34.5%)      0.0%
 REDUCED MASS        1.6190         O 3 -- H 5          +0.3% (  6.2%)      0.0%
 EFFECTIVE MASS      3.6947
 FORCE CONSTANT      0.8745

 VIBRATION          4    2A'         ATOM PAIR     ENERGY CONTRIBUTION    RADIAL
 FREQUENCY          1063.09         O 3 -- H 5         +50.9% ( 81.2%)      0.1%
 TRANSITION DIPOLE   0.6047         C 1 -- H 4         +27.0% ( 59.2%)      1.4%
 TRAVEL (Ang.)       0.1939         C 1 -- O 3         +19.3% ( 50.0%)     93.8%
 REDUCED MASS        1.6867         C 1 -- O 2          +2.8% ( 19.0%)     95.9%
 EFFECTIVE MASS      5.8173
 FORCE CONSTANT      1.1231

 VIBRATION          5    3A'         ATOM PAIR     ENERGY CONTRIBUTION    RADIAL
 FREQUENCY          1232.99         C 1 -- H 4         +45.5% ( 82.4%)      3.4%
 TRANSITION DIPOLE   1.5207         C 1 -- O 3         +31.5% ( 68.6%)     99.8%
 TRAVEL (Ang.)       0.1777         C 1 -- O 2         +16.1% ( 49.0%)      4.0%
 REDUCED MASS        1.7310         O 3 -- H 5          +6.9% ( 32.0%)      2.1%
 EFFECTIVE MASS      7.6162
 FORCE CONSTANT      1.5505

 VIBRATION          6    4A'         ATOM PAIR     ENERGY CONTRIBUTION    RADIAL
 FREQUENCY          1308.84         O 3 -- H 5         +35.1% ( 63.8%)     41.9%
 TRANSITION DIPOLE   0.9184         C 1 -- O 3         +30.2% ( 59.2%)     70.5%
 TRAVEL (Ang.)       0.1932         C 1 -- H 4         +20.4% ( 48.6%)     95.6%
 REDUCED MASS        1.3796         C 1 -- O 2         +14.4% ( 40.9%)      4.5%
 EFFECTIVE MASS      5.7752
 FORCE CONSTANT      1.3924

 VIBRATION          7    5A'         ATOM PAIR     ENERGY CONTRIBUTION    RADIAL
 FREQUENCY          1840.39         C 1 -- O 2         +56.9% ( 98.7%)     99.9%
 TRANSITION DIPOLE   4.4450         C 1 -- O 3         +21.9% ( 61.2%)     33.7%
 TRAVEL (Ang.)       0.0766         C 1 -- H 4         +20.8% ( 59.7%)     16.5%
 REDUCED MASS        6.2459         O 3 -- H 5          +0.4% (  8.5%)      0.1%
 EFFECTIVE MASS     13.2004
 FORCE CONSTANT     12.4642

 VIBRATION          8    6A'         ATOM PAIR     ENERGY CONTRIBUTION    RADIAL
 FREQUENCY          2663.42         C 1 -- H 4         +95.2% ( 99.5%)    100.0%
 TRANSITION DIPOLE   0.4122         C 1 -- O 2          +2.1% ( 14.8%)     64.5%
 TRAVEL (Ang.)       0.1666         C 1 -- O 3          +1.8% ( 13.9%)      2.2%
 REDUCED MASS        0.9124         O 3 -- H 5          +0.9% (  9.5%)     99.5%
 EFFECTIVE MASS      1.5267
 FORCE CONSTANT      3.8133

 VIBRATION          9    7A'         ATOM PAIR     ENERGY CONTRIBUTION    RADIAL
 FREQUENCY          2788.95         O 3 -- H 5         +98.8% ( 99.3%)     98.8%
 TRANSITION DIPOLE   1.4224         C 1 -- H 4          +0.8% (  9.0%)     87.0%
 TRAVEL (Ang.)       0.1612         C 1 -- O 3          +0.3% (  5.5%)      6.5%
 REDUCED MASS        0.9310
 EFFECTIVE MASS      1.3219
 FORCE CONSTANT      4.2666

      SYMMETRY NUMBER FOR POINT-GROUP Cs  =  1


          SYSTEM IS A GROUND STATE


 title
 title


          MOLECULE IS NOT LINEAR

          THERE ARE  9 GENUINE VIBRATIONS IN THIS SYSTEM
          THIS THERMODYNAMICS CALCULATION IS LIMITED TO
          MOLECULES WHICH HAVE NO INTERNAL ROTATIONS




                    CALCULATED THERMODYNAMIC PROPERTIES
                                          *
   TEMP. (K)   PARTITION FUNCTION   H.O.F.    ENTHALPY  HEAT CAPACITY ENTROPY
                                   KCAL/MOL   CAL/MOLE    CAL/K/MOL  CAL/K/MOL


 298.00  VIB.     0.1164D+01                   283.3009     3.2734     1.2524
         ROT.     0.8961D+04                   888.2813     2.9808    21.0656
         INT.     0.1043D+05                  1171.5822     6.2542    22.3180
         TRA.     0.3019D+27                  1480.4688     4.9680    37.4027
         TOT.                      -89.545    2652.0510    11.2222    59.7208

   *: NOTE: HEATS OF FORMATION ARE RELATIVE TO THE
            ELEMENTS IN THEIR STANDARD STATE AT 298K
              (=  Standard Enthalpy of Formation).

            Hvib:  Zero-point energy is not included.
                   frequencies of less than zero cm-1 are not included.
            Hrot = (3/2)RT
            Htra = (3/2)RT + pV = (5/2)RT

            Heat capacity is Cp, not Cv

          For more information, see: HTTP://OpenMOPAC.net/Manual/thermochemistry.html


           FORCE CONSTANT IN CARTESIAN COORDINATES (Millidynes/A)

    ATOM   CHEMICAL       X               Y               Z
   NUMBER   SYMBOL  FORCE CONSTANT  FORCE CONSTANT  FORCE CONSTANT

      1       C       15.838892        8.101346        2.266704
      2       O       14.470972        1.016326        0.336828
      3       O        4.758381        7.537530        0.470569
      4       H        2.025781        2.716552        0.349774
      5       H        1.419547        3.693649        0.167570

 **********************
 *                    *
 * JOB ENDED NORMALLY *
 *                    *
 **********************



 TOTAL JOB TIME:             0.04 SECONDS

 == MOPAC DONE ==
