 *******************************************************************************
 ** Site#:  999         For non-commercial use only           Version 21.129  **
 *******************************************************************************
 ** Cite this program as: MOPAC2016, Version: 21.129 , James J. P. Stewart,   **
 ** Stewart Computational Chemistry, web-site: HTTP://OpenMOPAC.net.          **
 *******************************************************************************
 **                                                                           **
 **                                MOPAC2016                                  **
 **                                                                           **
 *******************************************************************************

                              PM7 CALCULATION RESULTS

 *******************************************************************************
 *  CALCULATION DONE:                                Sun Nov 20 12:22:58 2022  *
 *  PM7        - The PM7 Hamiltonian to be used
 *
 *
 *
 *                 CHARGE ON SYSTEM = 0
 *
 *
 *
 *  1SCF       - DO 1 SCF AND THEN STOP 
 *  THREADS=1  - MULTI-THREADING NOT USED
 *  T=         - A TIME OF 172800.0 SECONDS REQUESTED
 *  DUMP=N     - RESTART FILE WRITTEN EVERY 7200.0 SECONDS REQUESTED
 *  DENOUT     - SAVE DENSITY MATRIX FOR USE LATER
 *******************************************************************************
 1scf   pm7 threads=1 denout charge=0
 title
 title
   ATOM   CHEMICAL          X               Y               Z
  NUMBER   SYMBOL      (ANGSTROMS)     (ANGSTROMS)     (ANGSTROMS)
 
     1       C          0.33125000  *  -0.97730000  *   0.00064000  *
     2       O          1.15970000  *  -0.18769000  *  -0.00048000  *
     3       O         -1.26256000  *   0.81125000  *  -0.00011000  *
     4       H         -1.02114000  *   1.33497000  *   0.75832000  *
     5       H         -1.01011000  *   1.33897000  *  -0.75226000  *
 


          CARTESIAN COORDINATES 

    NO.       ATOM           X           Y           Z

     1         C          0.3313     -0.9773      0.0006
     2         O          1.1597     -0.1877     -0.0005
     3         O         -1.2626      0.8113     -0.0001
     4         H         -1.0211      1.3350      0.7583
     5         H         -1.0101      1.3390     -0.7523

 General Reference for PM7:
 "Optimization of Parameters for Semiempirical Methods VI: More Modifications to the 
 NDDO Approximations and Re-optimization of Parameters", J. J. P. Stewart, J. Mol. Mod., 1:32, 19 (2013)
 https://link.springer.com/article/10.1007/s00894-012-1667-x

           Empirical Formula: C H2 O2  =     5 atoms



      MOLECULAR POINT GROUP   :   Cs  


      RHF CALCULATION, NO. OF DOUBLY OCCUPIED LEVELS = 9


 -------------------------------------------------------------------------------
 1scf   pm7 threads=1 denout charge=0
 title
 title


     1SCF WAS SPECIFIED, SO BFGS WAS NOT USED                 
     SCF FIELD WAS ACHIEVED                                   


                              PM7 CALCULATION
                                                       MOPAC2016 (Version: 21.129 )
                                                       Sun Nov 20 12:22:58 2022




          FINAL HEAT OF FORMATION =        -78.72862 KCAL/MOL =    -329.40055 KJ/MOL


          TOTAL ENERGY            =       -740.20005 EV
          ELECTRONIC ENERGY       =      -1537.92539 EV  POINT GROUP:     Cs  
          CORE-CORE REPULSION     =        797.72533 EV
          COSMO AREA              =         82.33 SQUARE ANGSTROMS
          COSMO VOLUME            =         62.91 CUBIC ANGSTROMS

          IONIZATION POTENTIAL    =         11.880012 EV
          HOMO LUMO ENERGIES (EV) =        -11.880  2.011
          NO. OF FILLED LEVELS    =          9
          MOLECULAR WEIGHT        =         46.0256

          MOLECULAR DIMENSIONS (Angstroms)

            Atom       Atom       Distance
            H     4    C     1     2.78382
            O     2    H     5     1.76633
            C     1    O     2     0.91570


          SCF CALCULATIONS        =          1
 
          WALL-CLOCK TIME         =          0.008 SECONDS
          COMPUTATION TIME        =          0.005 SECONDS




   ATOM   CHEMICAL          X               Y               Z
  NUMBER   SYMBOL      (ANGSTROMS)     (ANGSTROMS)     (ANGSTROMS)
 
     1       C          0.33125000  *  -0.97730000  *   0.00064000  *
     2       O          1.15970000  *  -0.18769000  *  -0.00048000  *
     3       O         -1.26256000  *   0.81125000  *  -0.00011000  *
     4       H         -1.02114000  *   1.33497000  *   0.75832000  *
     5       H         -1.01011000  *   1.33897000  *  -0.75226000  *

                             CARTESIAN COORDINATES

   1    C        0.331250000    -0.977300000     0.000640000
   2    O        1.159700000    -0.187690000    -0.000480000
   3    O       -1.262560000     0.811250000    -0.000110000
   4    H       -1.021140000     1.334970000     0.758320000
   5    H       -1.010110000     1.338970000    -0.752260000


           Empirical Formula: C H2 O2  =     5 atoms



      MOLECULAR POINT GROUP   :   Cs  


                  EIGENVALUES  
 -32.21515 -29.99011 -19.35968 -18.17138 -14.85375 -14.74251 -14.61675 -12.46374
 -11.88001   2.01068   2.08943   3.88375   5.98760   6.09100


              NET ATOMIC CHARGES AND DIPOLE CONTRIBUTIONS

  ATOM NO.   TYPE          CHARGE      No. of ELECS.   s-Pop       p-Pop       
    1          C           0.486843        3.5132     1.79114     1.72202
    2          O          -0.495048        6.4950     1.83435     4.66070
    3          O          -0.659261        6.6593     1.81103     4.84824
    4          H           0.333694        0.6663     0.66631
    5          H           0.333771        0.6662     0.66623
 DIPOLE           X         Y         Z       TOTAL
 POINT-CHG.    -1.241    -0.122     0.012     1.247
 HYBRID         1.230     1.487    -0.000     1.930
 SUM           -0.011     1.365     0.012     1.365


          ATOMIC ORBITAL ELECTRON POPULATIONS

     Atom    s        px        py        pz   
    1  C   1.79114   0.64088   0.65623   0.42491
    2  O   1.83435   1.53675   1.54871   1.57525
    3  O   1.81103   1.90335   1.58236   1.36253
    4  H   0.66631
    5  H   0.66623
 *******************************************************************************
 ** Site#:  999         For non-commercial use only           Version 21.129  **
 *******************************************************************************
 ** Cite this program as: MOPAC2016, Version: 21.129 , James J. P. Stewart,   **
 ** Stewart Computational Chemistry, web-site: HTTP://OpenMOPAC.net.          **
 *******************************************************************************
 **                                                                           **
 **                                MOPAC2016                                  **
 **                                                                           **
 *******************************************************************************

                              PM7 CALCULATION RESULTS

 *******************************************************************************
 *  CALCULATION DONE:                                Sun Nov 20 12:22:58 2022  *
 *  PM7        - The PM7 Hamiltonian to be used
 *
 *
 *
 *                 CHARGE ON SYSTEM = 0
 *
 *
 *
 *  LET        - OVERRIDE SOME SAFETY CHECKS
 *  OLDGEO     - PREVIOUS GEOMETRY TO BE USED
 *  FORCE      - FORCE CALCULATION SPECIFIED
 *  THREADS=1  - MULTI-THREADING NOT USED
 *  T=         - A TIME OF 172800.0 SECONDS REQUESTED
 *  DUMP=N     - RESTART FILE WRITTEN EVERY 7200.0 SECONDS REQUESTED
 *  OLDENS     - INITIAL DENSITY MATRIX READ OFF DISK
 *  THERMO     - THERMODYNAMIC QUANTITIES TO BE CALCULATED
 *******************************************************************************
  pm7 threads=1 oldens oldgeo charge=0 force let thermo(298,298)
 title
 title
   ATOM   CHEMICAL          X               Y               Z
  NUMBER   SYMBOL      (ANGSTROMS)     (ANGSTROMS)     (ANGSTROMS)
 
     1       C          0.33125000  *  -0.97730000  *   0.00064000  *
     2       O          1.15970000  *  -0.18769000  *  -0.00048000  *
     3       O         -1.26256000  *   0.81125000  *  -0.00011000  *
     4       H         -1.02114000  *   1.33497000  *   0.75832000  *
     5       H         -1.01011000  *   1.33897000  *  -0.75226000  *
 


          CARTESIAN COORDINATES 

    NO.       ATOM           X           Y           Z

     1         C          0.3313     -0.9773      0.0006
     2         O          1.1597     -0.1877     -0.0005
     3         O         -1.2626      0.8113     -0.0001
     4         H         -1.0211      1.3350      0.7583
     5         H         -1.0101      1.3390     -0.7523

 General Reference for PM7:
 "Optimization of Parameters for Semiempirical Methods VI: More Modifications to the 
 NDDO Approximations and Re-optimization of Parameters", J. J. P. Stewart, J. Mol. Mod., 1:32, 19 (2013)
 https://link.springer.com/article/10.1007/s00894-012-1667-x

           Empirical Formula: C H2 O2  =     5 atoms



      MOLECULAR POINT GROUP   :   Cs  


      RHF CALCULATION, NO. OF DOUBLY OCCUPIED LEVELS = 9



          HEAT OF FORMATION =     -78.728620 KCALS/MOLE


          CARTESIAN COORDINATE DERIVATIVES

   NUMBER  ATOM         X            Y            Z

     1       C      0.003131     0.167978    -0.008395
     2       O      0.189884    -0.479885     0.009240
     3       O      3.198588     1.514469     0.042937
     4       H     -1.666942    -0.616005    -3.633889
     5       H     -1.724662    -0.586559     3.590106
 


          GRADIENT NORM =   6.73735


                              **** WARNING ****

           GRADIENT IS VERY LARGE FOR A THERMO CALCULATION
           RESULTS ARE LIKELY TO BE INACCURATE IF THERE ARE
           ANY LOW-LYING VIBRATIONS (LESS THAN ABOUT 400CM-1)
           GRADIENT NORM SHOULD BE LESS THAN ABOUT 1.0 FOR THERMO
           TO GIVE ACCURATE RESULTS

          MOLECULAR WEIGHT =   46.03



          ROTATIONAL CONSTANTS IN CM(-1)

          A =    1.63883831   B =    0.24580920   C =    0.22016955



           PRINCIPAL MOMENTS OF INERTIA IN UNITS OF 10**(-40)*GRAM-CM**2

          A =       17.0809   B =      113.8801   C =      127.1419


          ORIENTATION OF MOLECULE IN FORCE CALCULATION

    NO.       ATOM         X         Y         Z

     1          C      -0.4530   -0.9464   -0.0002
     2          O       0.6915   -0.9464   -0.0002
     3          O      -0.3727    1.4479   -0.0002
     4          H       0.1626    1.6603    0.7589
     5          H       0.1749    1.6560   -0.7517


    FIRST DERIVATIVES WILL BE USED IN THE CALCULATION OF SECOND DERIVATIVES

          ESTIMATED TIME TO COMPLETE CALCULATION =        0.00 SECONDS

    FOR POINT-GROUP Cs   THERE ARE   2 UNIQUE SYMMETRY FUNCTIONS.

 STEP:   1 TIME =     0.00 SECS, INTEGRAL =      0.00 TIME LEFT: 172800.00
 STEP:   2 TIME =     0.00 SECS, INTEGRAL =      0.00 TIME LEFT: 172800.00
 STEP:   3 TIME =     0.00 SECS, INTEGRAL =      0.00 TIME LEFT: 172800.00
 STEP:   4 TIME =     0.00 SECS, INTEGRAL =      0.00 TIME LEFT: 172800.00
 STEP:   5 TIME =     0.00 SECS, INTEGRAL =      0.00 TIME LEFT: 172800.00
 STEP:   6 TIME =     0.00 SECS, INTEGRAL =      0.01 TIME LEFT: 172799.99
 STEP:   7 TIME =     0.00 SECS, INTEGRAL =      0.01 TIME LEFT: 172799.99
 STEP:   8 TIME =     0.00 SECS, INTEGRAL =      0.01 TIME LEFT: 172799.99
 STEP:   9 TIME =     0.00 SECS, INTEGRAL =      0.01 TIME LEFT: 172799.99
 STEP:  10 TIME =     0.00 SECS, INTEGRAL =      0.01 TIME LEFT: 172799.99
 STEP:  11 TIME =     0.00 SECS, INTEGRAL =      0.01 TIME LEFT: 172799.99
 STEP:  12 TIME =     0.00 SECS, INTEGRAL =      0.01 TIME LEFT: 172799.99
 STEP:  13                       INTEGRAL =      0.01 TIME LEFT: 172799.99
 STEP:  14                       INTEGRAL =      0.01 TIME LEFT: 172799.99
 STEP:  15                       INTEGRAL =      0.01 TIME LEFT: 172799.99

(To convert to Hartree/Bohr^2, multiply by (10^(-21) x N x a0^2)/(4.184 x 627.51) =  0.0642)


           FORCE MATRIX IN MILLIDYNES/ANGSTROM


                  C  1       O  2       O  3       H  4       H  5
 ------------------------------------------------------------------
     C    1  16.504455
     O    2  16.450949  16.444440
     O    3   0.148786   0.223471   6.432108
     H    4   0.076681   0.049820   4.083525   4.557910
     H    5   0.078025   0.050764   4.082507   0.857134   4.557910


          HEAT OF FORMATION =     -78.728620 KCALS/MOLE

          ZERO POINT ENERGY      13.901 KCAL/MOL

         NOTE: SYSTEM IS NOT A GROUND STATE, THEREFORE ZERO POINT
         ENERGY IS NOT MEANINGFULL. ZERO POINT ENERGY PRINTED
         DOES NOT INCLUDE THE  1 IMAGINARY FREQUENCIES


           NORMAL COORDINATE ANALYSIS (Total motion = 1 Angstrom)


   Root No.       1         2         3         4         5         6         7         8

                 1 A"      2 A"      1 A'      2 A'      3 A'      4 A'      5 A'      3 A"  

                -174.9      64.5     112.0     194.6     261.7    1394.0    2018.5    2806.5
  
           1    0.0001    0.0000   -0.0286   -0.0069   -0.0242   -0.0012    0.5435    0.0000
           2   -0.0000    0.0000   -0.0953    0.2758   -0.0527   -0.0002    0.0059   -0.0000
           3    0.0391   -0.0515   -0.0000    0.0000   -0.0000   -0.0001   -0.0001    0.0002
           4   -0.0000    0.0001   -0.0276   -0.0016   -0.0271    0.0007   -0.4072    0.0000
           5    0.0000    0.0000    0.1301    0.0456    0.0725    0.0000   -0.0002    0.0000
           6   -0.0381    0.0216    0.0001    0.0000   -0.0001   -0.0000    0.0000   -0.0003
           7   -0.0001   -0.0001    0.0292    0.0055    0.0605   -0.0485   -0.0025   -0.0001
           8   -0.0000   -0.0000   -0.0168   -0.2241   -0.0787   -0.0198   -0.0022   -0.0000
           9   -0.0108    0.0390   -0.0000   -0.0000    0.0000    0.0001    0.0000   -0.0475
          10   -0.3396    0.1486    0.1574    0.0100   -0.1208    0.3863    0.0134    0.2683
          11    0.2618    0.3801   -0.3313   -0.2269    0.3631    0.1581   -0.0159    0.1079
          12    0.1552   -0.1748   -0.0001    0.0034   -0.0001   -0.2220   -0.0105    0.3780
          13    0.3397   -0.1492    0.1573    0.0100   -0.1208    0.3868    0.0126   -0.2678
          14   -0.2619   -0.3799   -0.3317   -0.2269    0.3631    0.1581   -0.0161   -0.1080
          15    0.1545   -0.1746   -0.0004   -0.0035    0.0006    0.2216    0.0099    0.3785


   Root No.       9

                 6 A'  

                2872.1
  
           1    0.0004
           2   -0.0007
           3   -0.0004
           4   -0.0004
           5   -0.0001
           6    0.0004
           7   -0.0241
           8   -0.0094
           9   -0.0001
          10    0.1919
          11    0.0792
          12    0.4399
          13    0.1922
          14    0.0795
          15   -0.4395


           MASS-WEIGHTED COORDINATE ANALYSIS (NORMAL COORDINATES)


   Root No.       1         2         3         4         5         6         7         8

                 1 A"      2 A"      1 A'      2 A'      3 A'      4 A'      5 A'      3 A"  

                -174.9      64.5     112.0     194.6     261.7    1394.0    2018.5    2806.5
  
           1    0.0003    0.0002   -0.1192   -0.0175   -0.1093   -0.0060    0.7563    0.0002
           2   -0.0001    0.0000   -0.3971    0.7017   -0.2381   -0.0011    0.0082   -0.0001
           3    0.1995   -0.2627   -0.0002    0.0001   -0.0000   -0.0004   -0.0001    0.0010
           4   -0.0000    0.0006   -0.1326   -0.0047   -0.1411    0.0038   -0.6540    0.0002
           5    0.0001    0.0000    0.6258    0.1340    0.3781    0.0002   -0.0003    0.0001
           6   -0.2240    0.1273    0.0004    0.0000   -0.0003   -0.0000    0.0001   -0.0015
           7   -0.0003   -0.0005    0.1405    0.0162    0.3152   -0.2756   -0.0040   -0.0005
           8   -0.0000   -0.0002   -0.0807   -0.6580   -0.4102   -0.1126   -0.0036   -0.0000
           9   -0.0636    0.2300   -0.0001   -0.0001    0.0002    0.0005    0.0001   -0.2709
          10   -0.5012    0.2197    0.1900    0.0074   -0.1580    0.5515    0.0054    0.3836
          11    0.3865    0.5621   -0.4001   -0.1673    0.4749    0.2257   -0.0064    0.1542
          12    0.2290   -0.2584   -0.0002    0.0025   -0.0001   -0.3169   -0.0042    0.5406
          13    0.5015   -0.2206    0.1899    0.0074   -0.1581    0.5521    0.0051   -0.3830
          14   -0.3866   -0.5617   -0.4005   -0.1673    0.4749    0.2257   -0.0065   -0.1544
          15    0.2281   -0.2582   -0.0004   -0.0026    0.0008    0.3164    0.0040    0.5412


   Root No.       9

                 6 A'  

                2872.1
  
           1    0.0019
           2   -0.0034
           3   -0.0021
           4   -0.0024
           5   -0.0003
           6    0.0020
           7   -0.1379
           8   -0.0540
           9   -0.0004
          10    0.2760
          11    0.1139
          12    0.6325
          13    0.2764
          14    0.1143
          15   -0.6319


          DESCRIPTION OF VIBRATIONS


 VIBRATION          1    1A"         ATOM PAIR     ENERGY CONTRIBUTION    RADIAL
 FREQUENCY          -174.86         O 3 -- H 5         +50.0% (-99.9%)      0.1%
 TRANSITION DIPOLE   0.5303         O 3 -- H 4         +50.0% (-99.9%)      0.3%
 TRAVEL (Ang.)       0.9027
 REDUCED MASS        0.4732
 EFFECTIVE MASS      0.7791
 FORCE CONSTANT     -0.0085

 VIBRATION          2    2A"         ATOM PAIR     ENERGY CONTRIBUTION    RADIAL
 FREQUENCY            64.53         O 3 -- H 4         +50.0% (753.4%)      3.3%
 TRANSITION DIPOLE   0.6218         O 3 -- H 5         +49.9% (752.9%)      3.1%
 TRAVEL (Ang.)       0.0000
 REDUCED MASS        0.4806
 EFFECTIVE MASS     76.1199
 FORCE CONSTANT      0.0012

 VIBRATION          3    1A'         ATOM PAIR     ENERGY CONTRIBUTION    RADIAL
 FREQUENCY           111.96         C 1 -- O 2         +76.0% (109.0%)      0.0%
 TRANSITION DIPOLE   1.3828         O 3 -- H 5         +12.0% ( 43.4%)      1.6%
 TRAVEL (Ang.)       0.4392         O 3 -- H 4         +12.0% ( 43.3%)      1.8%
 REDUCED MASS        3.1221
 EFFECTIVE MASS     19.0055
 FORCE CONSTANT      0.0231

 VIBRATION          4    2A'         ATOM PAIR     ENERGY CONTRIBUTION    RADIAL
 FREQUENCY           194.63         O 3 -- H 5         +38.7% ( 71.5%)      4.5%
 TRANSITION DIPOLE   0.5623         O 3 -- H 4         +38.7% ( 71.5%)      4.7%
 TRAVEL (Ang.)       0.2418         C 1 -- O 2         +22.7% ( 54.8%)      0.1%
 REDUCED MASS        5.9258
 EFFECTIVE MASS     17.4505
 FORCE CONSTANT      0.1323

 VIBRATION          5    3A'         ATOM PAIR     ENERGY CONTRIBUTION    RADIAL
 FREQUENCY           261.66         O 3 -- H 5         +43.8% ( 55.5%)      0.6%
 TRANSITION DIPOLE   1.4262         O 3 -- H 4         +43.7% ( 55.5%)      0.5%
 TRAVEL (Ang.)       0.3834         C 1 -- O 2         +12.6% ( 29.7%)      0.3%
 REDUCED MASS        1.7527
 EFFECTIVE MASS      7.7148
 FORCE CONSTANT      0.0707

 VIBRATION          6    4A'         ATOM PAIR     ENERGY CONTRIBUTION    RADIAL
 FREQUENCY          1394.03         O 3 -- H 5         +50.0% ( 56.5%)     10.0%
 TRANSITION DIPOLE   0.5703         O 3 -- H 4         +50.0% ( 56.5%)      9.2%
 TRAVEL (Ang.)       0.2981
 REDUCED MASS        0.5442
 EFFECTIVE MASS      1.6837
 FORCE CONSTANT      0.6231

 VIBRATION          7    5A'         ATOM PAIR     ENERGY CONTRIBUTION    RADIAL
 FREQUENCY          2018.51         C 1 -- O 2        +100.0% (100.0%)    100.0%
 TRANSITION DIPOLE   4.8334
 TRAVEL (Ang.)       0.0698
 REDUCED MASS        6.8579
 EFFECTIVE MASS     13.6444
 FORCE CONSTANT     16.4627

 VIBRATION          8    3A"         ATOM PAIR     ENERGY CONTRIBUTION    RADIAL
 FREQUENCY          2806.51         O 3 -- H 5         +50.0% ( 71.9%)     96.3%
 TRANSITION DIPOLE   1.3100         O 3 -- H 4         +50.0% ( 71.9%)     96.9%
 TRAVEL (Ang.)       0.2152
 REDUCED MASS        0.5189
 EFFECTIVE MASS      1.4992
 FORCE CONSTANT      2.4079

 VIBRATION          9    6A'         ATOM PAIR     ENERGY CONTRIBUTION    RADIAL
 FREQUENCY          2872.13         O 3 -- H 4         +50.0% ( 68.4%)     99.9%
 TRANSITION DIPOLE   0.4629         O 3 -- H 5         +50.0% ( 68.4%)     99.8%
 TRAVEL (Ang.)       0.2189
 REDUCED MASS        0.4898
 EFFECTIVE MASS      1.1494
 FORCE CONSTANT      2.3803

      SYMMETRY NUMBER FOR POINT-GROUP Cs  =  1


          SYSTEM IS A GROUND STATE


 title
 title


          MOLECULE IS NOT LINEAR

          THERE ARE  9 GENUINE VIBRATIONS IN THIS SYSTEM
          THIS THERMODYNAMICS CALCULATION IS LIMITED TO
          MOLECULES WHICH HAVE NO INTERNAL ROTATIONS




                    CALCULATED THERMODYNAMIC PROPERTIES
                                          *
   TEMP. (K)   PARTITION FUNCTION   H.O.F.    ENTHALPY  HEAT CAPACITY ENTROPY
                                   KCAL/MOL   CAL/MOLE    CAL/K/MOL  CAL/K/MOL


 298.00  VIB.     0.3595D+02                  1985.0551     9.4936    13.7796
         ROT.     0.1774D+05                   888.2813     2.9808    22.4228
         INT.     0.6378D+06                  2873.3364    12.4744    36.2025
         TRA.     0.3019D+27                  1480.4688     4.9680    37.4027
         TOT.                      -78.729    4353.8053    17.4424    73.6052

   *: NOTE: HEATS OF FORMATION ARE RELATIVE TO THE
            ELEMENTS IN THEIR STANDARD STATE AT 298K
              (=  Standard Enthalpy of Formation).

            Hvib:  Zero-point energy is not included.
                   frequencies of less than zero cm-1 are not included.
            Hrot = (3/2)RT
            Htra = (3/2)RT + pV = (5/2)RT

            Heat capacity is Cp, not Cv

          For more information, see: HTTP://OpenMOPAC.net/Manual/thermochemistry.html


           FORCE CONSTANT IN CARTESIAN COORDINATES (Millidynes/A)

    ATOM   CHEMICAL       X               Y               Z
   NUMBER   SYMBOL  FORCE CONSTANT  FORCE CONSTANT  FORCE CONSTANT

      1       C       16.501054        0.176494        0.017599
      2       O       16.443852        0.145573        0.000287
      3       O        2.942660        0.720153        5.474363
      4       H        1.409762        0.241364        3.438366
      5       H        1.404653        0.241783        3.443056

 **********************
 *                    *
 * JOB ENDED NORMALLY *
 *                    *
 **********************



 TOTAL JOB TIME:             0.03 SECONDS

 == MOPAC DONE ==
