 *******************************************************************************
 ** Site#:  999         For non-commercial use only           Version 21.129  **
 *******************************************************************************
 ** Cite this program as: MOPAC2016, Version: 21.129 , James J. P. Stewart,   **
 ** Stewart Computational Chemistry, web-site: HTTP://OpenMOPAC.net.          **
 *******************************************************************************
 **                                                                           **
 **                                MOPAC2016                                  **
 **                                                                           **
 *******************************************************************************

                              PM7 CALCULATION RESULTS

 *******************************************************************************
 *  CALCULATION DONE:                                Sun Nov 20 12:22:49 2022  *
 *  PM7        - The PM7 Hamiltonian to be used
 *
 *
 *
 *                 CHARGE ON SYSTEM = 0
 *
 *
 *
 *  IRC=N      - INTRINSIC REACTION COORDINATE -1 DEFINED
 *  PRECISE    - TIGHTER CRITERIA TO BE USED
 *  THREADS=1  - MULTI-THREADING NOT USED
 *  T=         - A TIME OF 172800.0 SECONDS REQUESTED
 *  DUMP=N     - RESTART FILE WRITTEN EVERY 7200.0 SECONDS REQUESTED
 *  CYCLES=    - DO A MAXIMUM OF 5000 STEPS
 *  OLDENS     - INITIAL DENSITY MATRIX READ OFF DISK
 *******************************************************************************
   pm7 threads=1 charge=0 irc=-1 oldens precise cycles=5000
 title
 title
   ATOM   CHEMICAL          X               Y               Z
  NUMBER   SYMBOL      (ANGSTROMS)     (ANGSTROMS)     (ANGSTROMS)
 
     1       C          0.00000000  *   0.00000000  *   0.00000000  *
     2       O          1.19350230  *   0.00000000  *   0.00000000  *
     3       O         -0.67522604  *   1.19856960  *   0.00000000  *
     4       H         -0.67463551  *  -0.85103702  *  -0.08374709  *
     5       H         -1.14375093  *   1.42933113  *   0.81472089  *
 


          CARTESIAN COORDINATES 

    NO.       ATOM           X           Y           Z

     1         C          0.0000      0.0000      0.0000
     2         O          1.1935      0.0000      0.0000
     3         O         -0.6752      1.1986      0.0000
     4         H         -0.6746     -0.8510     -0.0837
     5         H         -1.1438      1.4293      0.8147

 General Reference for PM7:
 "Optimization of Parameters for Semiempirical Methods VI: More Modifications to the 
 NDDO Approximations and Re-optimization of Parameters", J. J. P. Stewart, J. Mol. Mod., 1:32, 19 (2013)
 https://link.springer.com/article/10.1007/s00894-012-1667-x

           Empirical Formula: C H2 O2  =     5 atoms



      MOLECULAR POINT GROUP   :   C1  


      RHF CALCULATION, NO. OF DOUBLY OCCUPIED LEVELS = 9



          HEAT OF FORMATION =     -78.100733 KCALS/MOLE


          GRADIENT NORM =   0.01763


          TIME FOR SCF CALCULATION =    0.00

          TIME FOR DERIVATIVES     =    0.00

          MOLECULAR WEIGHT =   46.03


          ESTIMATED TIME TO COMPLETE CALCULATION =        0.23 SECONDS

    FOR POINT-GROUP C1   THERE ARE   1 UNIQUE SYMMETRY FUNCTIONS.

 STEP:   1 TIME =     0.00 SECS, INTEGRAL =      0.00 TIME LEFT: 172800.00
 STEP:   2 TIME =     0.00 SECS, INTEGRAL =      0.00 TIME LEFT: 172799.99
 STEP:   3 TIME =     0.00 SECS, INTEGRAL =      0.00 TIME LEFT: 172799.99
 STEP:   4 TIME =     0.00 SECS, INTEGRAL =      0.01 TIME LEFT: 172799.99
 STEP:   5 TIME =     0.00 SECS, INTEGRAL =      0.01 TIME LEFT: 172799.99
 STEP:   6 TIME =     0.00 SECS, INTEGRAL =      0.01 TIME LEFT: 172799.98
 STEP:   7 TIME =     0.00 SECS, INTEGRAL =      0.01 TIME LEFT: 172799.98
 STEP:   8 TIME =     0.00 SECS, INTEGRAL =      0.02 TIME LEFT: 172799.98
 STEP:   9 TIME =     0.00 SECS, INTEGRAL =      0.02 TIME LEFT: 172799.98
 STEP:  10 TIME =     0.00 SECS, INTEGRAL =      0.02 TIME LEFT: 172799.98
 STEP:  11 TIME =     0.00 SECS, INTEGRAL =      0.02 TIME LEFT: 172799.97
 STEP:  12 TIME =     0.00 SECS, INTEGRAL =      0.02 TIME LEFT: 172799.97
 STEP:  13 TIME =     0.00 SECS, INTEGRAL =      0.03 TIME LEFT: 172799.97
 STEP:  14 TIME =     0.00 SECS, INTEGRAL =      0.03 TIME LEFT: 172799.97
 STEP:  15 TIME =     0.00 SECS, INTEGRAL =      0.03 TIME LEFT: 172799.96
  Stopping critera: r_ij>5*r_ij(0)
 
           INITIAL VELOCITY IN DRC (Angstroms/Femtosecond)
         0.00783         0.00390        -0.02941
         0.00571         0.00143         0.02807
        -0.04876        -0.02685        -0.01134
        -0.00049         0.02181        -0.16040
         0.59056         0.33519         0.24516
 
  Deltat    =   0.24 fs
  Maxcyc    =      5000
  Jloop_lim =      5000
 
  Initial distance matrix
  Bond#     i     j    Ini_value(A)
      1     1     2          1.194
      2     1     3          1.376
      3     1     4          1.089
      4     1     5          2.004
      5     2     3          2.220
      6     2     4          2.055
      7     2     5          2.858
      8     3     4          2.051
      9     3     5          0.968
     10     4     5          2.495
 
 


     POINT   POTENTIAL  +  ENERGY LOST   =   TOTAL      ERROR    REF%   MOVEMENT
       1     -78.10073      0.00000        -78.10073   0.00000     1   %  0.0000
       2     -78.10077      0.00000        -78.10077  -0.00003     2   %  0.0020
       3     -78.10085      0.00000        -78.10085  -0.00012     3   %  0.0042
       4     -78.10207      0.00000        -78.10207  -0.00134     4   %  0.0151
       5     -78.10454      0.00000        -78.10454  -0.00381     5   %  0.0259
       6     -78.10826      0.00000        -78.10826  -0.00753     6   %  0.0367
       7     -78.11321      0.00000        -78.11321  -0.01248     7   %  0.0476
       8     -78.11930      0.00000        -78.11930  -0.01857     8   %  0.0584
       9     -78.12657      0.00000        -78.12657  -0.02584     9   %  0.0692
      10     -78.13500      0.00000        -78.13500  -0.03426    10   %  0.0801
      11     -78.14450      0.00000        -78.14450  -0.04377    11   %  0.0909
      12     -78.15509      0.00000        -78.15509  -0.05435    12   %  0.1017
      13     -78.16678      0.00000        -78.16678  -0.06605    13   %  0.1124
      14     -78.17965      0.00000        -78.17965  -0.07892    14   %  0.1233
      15     -78.19350      0.00000        -78.19350  -0.09277    15   %  0.1340
      16     -78.20848      0.00000        -78.20848  -0.01498    16   %  0.1449
      17     -78.22277      0.02054        -78.20223  -0.00873    17   %  0.1540
      18     -78.23316      0.04711        -78.18605   0.00745    18   %  0.1626
      19     -78.24322      0.08348        -78.15974   0.03376    19   %  0.1684
      20     -78.25271      0.12755        -78.12516   0.06834    20   %  0.1747
      21     -78.26330      0.17366        -78.08964   0.10386    21   %  0.1801
      22     -78.27414      0.22031        -78.05384   0.13967    22   %  0.1867
      23     -78.28592      0.26667        -78.01926   0.17425    23   %  0.1925
      24     -78.29826      0.31254        -77.98572   0.20778    24   %  0.1994
      25     -78.31115      0.35812        -77.95303   0.24048    25   %  0.2056
      26     -78.32487      0.40435        -77.92052   0.27298    26   %  0.2130
      27     -78.33927      0.44982        -77.88945   0.30406    27   %  0.2194
      28     -78.35433      0.49535        -77.85898   0.33452    28   %  0.2271
      29     -78.37019      0.53907        -77.83111   0.36239    29   %  0.2338
      30     -78.38667      0.58257        -77.80409   0.38941    30   %  0.2418
      31     -78.40412      0.62571        -77.77841   0.41509    31   %  0.2490
      32     -78.42234      0.66922        -77.75312   0.44038    32   %  0.2574
      33     -78.44134      0.71237        -77.72898   0.46453    33   %  0.2649
      34     -78.46113      0.75519        -77.70594   0.48757    34   %  0.2735
      35     -78.48165      0.79716        -77.68449   0.50902    35   %  0.2813
      36     -78.50302      0.83837        -77.66465   0.52886    36   %  0.2902
      37     -78.52527      0.87924        -77.64603   0.54748    37   %  0.2984
      38     -78.54834      0.91945        -77.62890   0.56461    38   %  0.3076
      39     -78.57226      0.95924        -77.61302   0.58049    39   %  0.3161
      40     -78.59718      0.99895        -77.59823   0.59527    40   %  0.3257
      41     -78.62261      1.03772        -77.58489   0.60862    41   %  0.3343
      42     -78.64901      1.07636        -77.57265   0.62085    42   %  0.3442
      43     -78.67626      1.11478        -77.56149   0.63202    43   %  0.3532
      44     -78.70430      1.15300        -77.55130   0.64220    44   %  0.3633
      45     -78.73292      1.19078        -77.54214   0.65136    45   %  0.3725
      46     -78.76226      1.22821        -77.53404   0.65946    46   %  0.3828
      47     -78.79196      1.26490        -77.52706   0.66644    47   %  0.3921
      48     -78.82277      1.30177        -77.52100   0.67251    48   %  0.4025
      49     -78.85404      1.33833        -77.51570   0.67780    49   %  0.4122
      50     -78.88578      1.37451        -77.51127   0.68223    50   %  0.4226
      51     -78.91779      1.41027        -77.50753   0.68597    51   %  0.4324
      52     -78.95064      1.44613        -77.50451   0.68900    52   %  0.4429
      53     -78.98405      1.48216        -77.50189   0.69162    53   %  0.4529
      54     -79.01762      1.51781        -77.49981   0.69370    54   %  0.4635
      55     -79.05186      1.55383        -77.49803   0.69547    55   %  0.4736
      56     -79.08606      1.58946        -77.49659   0.69691    56   %  0.4842
      57     -79.12032      1.62483        -77.49548   0.69802    57   %  0.4942
      58     -79.15495      1.66036        -77.49460   0.69891    58   %  0.5048
      59     -79.18963      1.69570        -77.49393   0.69957    59   %  0.5149
      60     -79.22452      1.73112        -77.49341   0.70010    60   %  0.5253
      61     -79.25954      1.76652        -77.49302   0.70048    61   %  0.5355
      62     -79.29449      1.80177        -77.49272   0.70078    62   %  0.5459
      63     -79.32946      1.83695        -77.49251   0.70100    63   %  0.5560
      64     -79.36489      1.87255        -77.49234   0.70117    64   %  0.5665
      65     -79.40041      1.90820        -77.49222   0.70129    65   %  0.5768
      66     -79.43558      1.94346        -77.49212   0.70139    66   %  0.5871
      67     -79.47078      1.97873        -77.49205   0.70145    67   %  0.5973
      68     -79.50583      2.01383        -77.49200   0.70150    68   %  0.6076
      69     -79.54072      2.04875        -77.49197   0.70153    69   %  0.6178
      70     -79.58495      2.09304        -77.49191   0.70159    70   %  0.6308
      71     -79.62516      2.13331        -77.49185   0.70165    71   %  0.6425
      72     -79.66246      2.17069        -77.49177   0.70173    72   %  0.6536
      73     -79.69674      2.20504        -77.49170   0.70180    73   %  0.6637
      74     -79.73052      2.23889        -77.49163   0.70188    74   %  0.6738
      75     -79.76416      2.27259        -77.49157   0.70193    75   %  0.6838
      76     -79.79750      2.30597        -77.49153   0.70198    76   %  0.6940
      77     -79.83116      2.33967        -77.49149   0.70201    77   %  0.7041
      78     -79.87002      2.37861        -77.49141   0.70209    78   %  0.7161
      79     -79.90266      2.41132        -77.49134   0.70216    79   %  0.7260
      80     -79.93488      2.44360        -77.49128   0.70223    80   %  0.7362
      81     -79.96693      2.47579        -77.49114   0.70236    81   %  0.7461
      82     -79.99863      2.50760        -77.49103   0.70247    82   %  0.7563
      83     -80.02933      2.53849        -77.49084   0.70267    83   %  0.7660
      84     -80.05963      2.56895        -77.49068   0.70283    84   %  0.7760
      85     -80.08947      2.59912        -77.49035   0.70316    85   %  0.7856
      86     -80.11938      2.62940        -77.48998   0.70353    86   %  0.7958
      87     -80.14825      2.65894        -77.48931   0.70419    87   %  0.8052
      88     -80.17668      2.68829        -77.48839   0.70511    88   %  0.8153
      89     -80.20462      2.71785        -77.48677   0.70674    89   %  0.8246
      90     -80.23171      2.74753        -77.48417   0.70933    90   %  0.8348
      91     -80.25766      2.77797        -77.47968   0.71382    91   %  0.8434
      92     -80.28198      2.80936        -77.47262   0.72088    92   %  0.8535
      93     -80.30476      2.84276        -77.46200   0.73150    93   %  0.8608
      94     -80.32598      2.87821        -77.44777   0.74573    94   %  0.8705
      95     -80.34609      2.91614        -77.42995   0.76355    95   %  0.8766
      96     -80.36522      2.95621        -77.40902   0.78449    96   %  0.8860
      97     -80.38350      2.99683        -77.38666   0.80684    97   %  0.8913
      98     -80.40091      3.03809        -77.36282   0.83068    98   %  0.9004
      99     -80.41795      3.08030        -77.33765   0.85586    99   %  0.9054
     100     -80.43415      3.12278        -77.31138   0.88213   100   %  0.9143
     101     -80.44982      3.16534        -77.28447   0.90903   101   %  0.9188
     102     -80.46473      3.20890        -77.25583   0.93767   102   %  0.9277
     103     -80.47932      3.25336        -77.22596   0.96754   103   %  0.9318
     104     -80.49311      3.29762        -77.19549   0.99802   104   %  0.9403
     105     -80.50635      3.34289        -77.16346   1.03004   105   %  0.9441
     106     -80.51915      3.38884        -77.13031   1.06319   106   %  0.9526
     107     -80.53141      3.43521        -77.09620   1.09731   107   %  0.9560
     108     -80.54309      3.48193        -77.06116   1.13235   108   %  0.9642
     109     -80.55449      3.52812        -77.02637   1.16713   109   %  0.9672
     110     -80.56513      3.57407        -76.99106   1.20244   110   %  0.9753
     111     -80.57554      3.62044        -76.95510   1.23841   111   %  0.9780
     112     -80.58542      3.66691        -76.91851   1.27499   112   %  0.9859
     113     -80.59486      3.71395        -76.88091   1.31259   113   %  0.9883
     114     -80.60398      3.76116        -76.84282   1.35068   114   %  0.9961
     115     -80.61261      3.80872        -76.80389   1.38961   115   %  0.9981
     116     -80.62096      3.85644        -76.76452   1.42898   116   %  1.0057
     117     -80.62880      3.90480        -76.72400   1.46950   117   %  1.0075
     118     -80.63642      3.95383        -76.68259   1.51091   118   %  1.0150
     119     -80.64360      4.00362        -76.63998   1.55352   119   %  1.0165
     120     -80.65065      4.05357        -76.59708   1.59642   120   %  1.0239
     121     -80.65722      4.10358        -76.55364   1.63987   121   %  1.0251
     122     -80.66356      4.15390        -76.50966   1.68384   122   %  1.0323
     123     -80.66976      4.20382        -76.46593   1.72757   123   %  1.0332
     124     -80.67523      4.25454        -76.42069   1.77281   124   %  1.0403
     125     -80.68117      4.30498        -76.37619   1.81731   125   %  1.0410
     126     -80.68626      4.35482        -76.33143   1.86207   126   %  1.0479
     127     -80.69137      4.40480        -76.28657   1.90693   127   %  1.0484
     128     -80.69603      4.45533        -76.24070   1.95281   128   %  1.0552
     129     -80.70078      4.50608        -76.19470   1.99880   129   %  1.0554
     130     -80.70485      4.55768        -76.14717   2.04633   130   %  1.0622
     131     -80.70960      4.60842        -76.10117   2.09233   131   %  1.0622
     132     -80.71295      4.65960        -76.05335   2.14015   132   %  1.0688
     133     -80.71746      4.71025        -76.00721   2.18629   133   %  1.0686
     134     -80.72038      4.76135        -75.95902   2.23448   134   %  1.0751
     135     -80.72419      4.81359        -75.91060   2.28290   135   %  1.0747
     136     -80.72761      4.86487        -75.86273   2.33077   136   %  1.0810
     137     -80.73025      4.91737        -75.81288   2.38063   137   %  1.0804
     138     -80.73378      4.96992        -75.76386   2.42964   138   %  1.0867
     139     -80.73620      5.02262        -75.71359   2.47992   139   %  1.0860
     140     -80.73928      5.07545        -75.66383   2.52967   140   %  1.0921
     141     -80.74161      5.12833        -75.61328   2.58022   141   %  1.0912
     142     -80.74449      5.18066        -75.56383   2.62968   142   %  1.0973
     143     -80.74661      5.23254        -75.51407   2.67943   143   %  1.0963
     144     -80.74911      5.28415        -75.46496   2.72854   144   %  1.1022
     145     -80.75085      5.33644        -75.41442   2.77909   145   %  1.1010
     146     -80.75319      5.38924        -75.36394   2.82956   146   %  1.1069
     147     -80.75501      5.44189        -75.31313   2.88038   147   %  1.1056
     148     -80.75688      5.49484        -75.26203   2.93147   148   %  1.1114
     149     -80.75871      5.54770        -75.21102   2.98249   149   %  1.1099
     150     -80.76040      5.60037        -75.16003   3.03347   150   %  1.1156
     151     -80.76213      5.65260        -75.10953   3.08398   151   %  1.1140
     152     -80.76356      5.70470        -75.05886   3.13464   152   %  1.1196
     153     -80.76503      5.75706        -75.00797   3.18554   153   %  1.1180
     154     -80.76631      5.80992        -74.95639   3.23712   154   %  1.1235
     155     -80.76782      5.86270        -74.90512   3.28838   155   %  1.1217
     156     -80.76860      5.91654        -74.85206   3.34145   156   %  1.1272
     157     -80.77031      5.97044        -74.79987   3.39364   157   %  1.1252
     158     -80.77120      6.02381        -74.74740   3.44611   158   %  1.1307
     159     -80.77234      6.07753        -74.69481   3.49869   159   %  1.1286
     160     -80.77370      6.13018        -74.64352   3.54999   160   %  1.1339
     161     -80.77388      6.18428        -74.58960   3.60391   161   %  1.1318
     162     -80.77592      6.23750        -74.53842   3.65509   162   %  1.1370
     163     -80.77537      6.29217        -74.48320   3.71030   163   %  1.1348
     164     -80.77775      6.34632        -74.43143   3.76207   164   %  1.1400
     165     -80.77721      6.40057        -74.37663   3.81687   165   %  1.1377
     166     -80.77959      6.45325        -74.32635   3.86716   166   %  1.1428
     167     -80.77871      6.50625        -74.27246   3.92104   167   %  1.1405
     168     -80.78070      6.55970        -74.22100   3.97250   168   %  1.1456
     169     -80.78030      6.61334        -74.16696   4.02654   169   %  1.1431
     170     -80.78180      6.66723        -74.11458   4.07893   170   %  1.1482
     171     -80.78168      6.72119        -74.06049   4.13302   171   %  1.1457
     172     -80.78311      6.77443        -74.00869   4.18482   172   %  1.1506
     173     -80.78293      6.82745        -73.95548   4.23802   173   %  1.1481
     174     -80.78407      6.88042        -73.90364   4.28986   174   %  1.1530
     175     -80.78368      6.93457        -73.84911   4.34439   175   %  1.1503
     176     -80.78495      6.98903        -73.79592   4.39758   176   %  1.1552
     177     -80.78493      7.04299        -73.74193   4.45157   177   %  1.1525
     178     -80.78572      7.09690        -73.68882   4.50468   178   %  1.1574
     179     -80.78561      7.15145        -73.63416   4.55934   179   %  1.1545
     180     -80.78689      7.20478        -73.58211   4.61140   180   %  1.1593
     181     -80.78609      7.25905        -73.52704   4.66646   181   %  1.1565
     182     -80.78796      7.31185        -73.47611   4.71739   182   %  1.1612
     183     -80.78620      7.36672        -73.41947   4.77403   183   %  1.1582
     184     -80.78891      7.42029        -73.36862   4.82489   184   %  1.1630
     185     -80.78647      7.47567        -73.31081   4.88270   185   %  1.1600
     186     -80.78959      7.52997        -73.25962   4.93388   186   %  1.1647
     187     -80.78718      7.58492        -73.20226   4.99125   187   %  1.1617
     188     -80.79030      7.63814        -73.15216   5.04134   188   %  1.1663
     189     -80.78764      7.69234        -73.09530   5.09821   189   %  1.1633
     190     -80.79054      7.74636        -73.04417   5.14933   190   %  1.1679
     191     -80.78849      7.80049        -72.98799   5.20551   191   %  1.1649
     192     -80.79079      7.85425        -72.93654   5.25697   192   %  1.1695
     193     -80.78882      7.90911        -72.87971   5.31380   193   %  1.1663
     194     -80.79110      7.96369        -72.82740   5.36610   194   %  1.1709
     195     -80.78939      8.01861        -72.77077   5.42273   195   %  1.1677
     196     -80.79170      8.07191        -72.71979   5.47372   196   %  1.1722
     197     -80.78982      8.12541        -72.66441   5.52909   197   %  1.1690
     198     -80.79173      8.17898        -72.61275   5.58075   198   %  1.1736
     199     -80.79030      8.23294        -72.55736   5.63615   199   %  1.1703
     200     -80.79167      8.28755        -72.50412   5.68939   200   %  1.1749
     201     -80.79061      8.34286        -72.44775   5.74575   201   %  1.1715
     202     -80.79218      8.39706        -72.39512   5.79839   202   %  1.1760
     203     -80.79064      8.45223        -72.33841   5.85510   203   %  1.1726
     204     -80.79277      8.50576        -72.28700   5.90650   204   %  1.1770
     205     -80.79096      8.55946        -72.23151   5.96200   205   %  1.1737
     206     -80.79287      8.61265        -72.18022   6.01329   206   %  1.1781
     207     -80.79073      8.66792        -72.12281   6.07070   207   %  1.1747
     208     -80.79347      8.72149        -72.07198   6.12152   208   %  1.1791
     209     -80.79094      8.77567        -72.01527   6.17824   209   %  1.1757
     210     -80.79370      8.82858        -71.96511   6.22839   210   %  1.1800
     211     -80.79074      8.88348        -71.90726   6.28625   211   %  1.1765
     212     -80.79417      8.93656        -71.85760   6.33590   212   %  1.1809
     213     -80.79063      8.99140        -71.79922   6.39428   213   %  1.1774
     214     -80.79428      9.04522        -71.74907   6.44444   214   %  1.1817
     215     -80.79066      9.10070        -71.68996   6.50354   215   %  1.1782
     216     -80.79456      9.15452        -71.64003   6.55347   216   %  1.1825
     217     -80.79106      9.20881        -71.58225   6.61125   217   %  1.1791
     218     -80.79469      9.26147        -71.53322   6.66029   218   %  1.1833
     219     -80.79081      9.31636        -71.47445   6.71905   219   %  1.1798
     220     -80.79501      9.36941        -71.42560   6.76790   220   %  1.1840
     221     -80.79056      9.42483        -71.36573   6.82777   221   %  1.1805
     222     -80.79512      9.47885        -71.31628   6.87723   222   %  1.1848
     223     -80.79075      9.53428        -71.25647   6.93704   223   %  1.1812
     224     -80.79540      9.58735        -71.20805   6.98545   224   %  1.1854
     225     -80.79016      9.64370        -71.14646   7.04704   225   %  1.1818
     226     -80.79564      9.69811        -71.09752   7.09598   226   %  1.1860
     227     -80.79062      9.75341        -71.03721   7.15630   227   %  1.1824
     228     -80.79555      9.80715        -70.98839   7.20511   228   %  1.1867
     229     -80.79095      9.86198        -70.92896   7.26454   229   %  1.1831
     230     -80.79554      9.91530        -70.88024   7.31326   230   %  1.1873
     231     -80.79092      9.97051        -70.82040   7.37310   231   %  1.1836
     232     -80.79553     10.02448        -70.77105   7.42245   232   %  1.1879
     233     -80.79107     10.07991        -70.71115   7.48235   233   %  1.1842
     234     -80.79574     10.13317        -70.66257   7.53093   234   %  1.1884
     235     -80.79049     10.18962        -70.60087   7.59263   235   %  1.1846
     236     -80.79599     10.24391        -70.55208   7.64142   236   %  1.1888
     237     -80.79018     10.30105        -70.48913   7.70438   237   %  1.1851
     238     -80.79616     10.35587        -70.44029   7.75321   238   %  1.1893
     239     -80.79043     10.41218        -70.37824   7.81526   239   %  1.1856
     240     -80.79628     10.46589        -70.33039   7.86312   240   %  1.1897
     241     -80.79023     10.52216        -70.26807   7.92543   241   %  1.1860
     242     -80.79652     10.57558        -70.22095   7.97256   242   %  1.1901
     243     -80.78965     10.63270        -70.15695   8.03655   243   %  1.1863
     244     -80.79685     10.68656        -70.11029   8.08321   244   %  1.1905
     245     -80.78932     10.74376        -70.04556   8.14794   245   %  1.1867
     246     -80.79725     10.79670        -70.00056   8.19295   246   %  1.1908
     247     -80.78878     10.85364        -69.93515   8.25836   247   %  1.1870
     248     -80.79741     10.90709        -69.89032   8.30318   248   %  1.1911
     249     -80.78877     10.96376        -69.82500   8.36850   249   %  1.1874
     250     -80.79750     11.01691        -69.78059   8.41291   250   %  1.1915
     251     -80.78876     11.07327        -69.71550   8.47801   251   %  1.1877
     252     -80.79746     11.12666        -69.67079   8.52271   252   %  1.1919
     253     -80.78859     11.18384        -69.60475   8.58876   253   %  1.1881
     254     -80.79753     11.23776        -69.55976   8.63374   254   %  1.1922
     255     -80.78803     11.29643        -69.49160   8.70190   255   %  1.1883
     256     -80.79791     11.35024        -69.44767   8.74584   256   %  1.1924
     257     -80.78802     11.40749        -69.38052   8.81298   257   %  1.1886
     258     -80.79782     11.46126        -69.33656   8.85694   258   %  1.1927
     259     -80.78813     11.51858        -69.26955   8.92396   259   %  1.1889
     260     -80.79788     11.57210        -69.22578   8.96773   260   %  1.1930
     261     -80.78741     11.63101        -69.15640   9.03710   261   %  1.1891
     262     -80.79814     11.68527        -69.11287   9.08063   262   %  1.1932
     263     -80.78731     11.74369        -69.04362   9.14988   263   %  1.1894
     264     -80.79818     11.79774        -69.00044   9.19307   264   %  1.1935
     265     -80.78695     11.85681        -68.93014   9.26337   265   %  1.1896
     266     -80.79845     11.91046        -68.88799   9.30551   266   %  1.1937
     267     -80.78669     11.96894        -68.81775   9.37575   267   %  1.1898
     268     -80.79834     12.02346        -68.77488   9.41863   268   %  1.1939
     269     -80.78706     12.08177        -68.70528   9.48822   269   %  1.1901
     270     -80.79850     12.13478        -68.66372   9.52979   270   %  1.1941
     271     -80.78643     12.19352        -68.59291   9.60059   271   %  1.1903
     272     -80.79856     12.24757        -68.55099   9.64251   272   %  1.1943
     273     -80.78656     12.30604        -68.48052   9.71299   273   %  1.1905
     274     -80.79868     12.35907        -68.43961   9.75389   274   %  1.1945
     275     -80.78560     12.41898        -68.36662   9.82688   275   %  1.1906
     276     -80.79879     12.47369        -68.32511   9.86840   276   %  1.1947
     277     -80.78514     12.53469        -68.25045   9.94305   277   %  1.1907
     278     -80.79893     12.58967        -68.20926   9.98424   278   %  1.1948
     279     -80.78451     12.65156        -68.13295  10.06055   279   %  1.1909
     280     -80.79914     12.70651        -68.09264  10.10087   280   %  1.1949
     281     -80.78404     12.76835        -68.01569  10.17782   281   %  1.1910
     282     -80.79930     12.82290        -67.97640  10.21710   282   %  1.1950
     283     -80.78302     12.88601        -67.89700  10.29650   283   %  1.1911
     284     -80.79943     12.94175        -67.85768  10.33583   284   %  1.1951
     285     -80.78248     13.00561        -67.77686  10.41664   285   %  1.1912
     286     -80.79964     13.06045        -67.73919  10.45431   286   %  1.1952
     287     -80.78217     13.12327        -67.65890  10.53461   287   %  1.1913
     288     -80.79968     13.17774        -67.62193  10.57157   288   %  1.1953
     289     -80.78147     13.24152        -67.53995  10.65355   289   %  1.1914
     290     -80.79980     13.29629        -67.50351  10.69000   290   %  1.1954
     291     -80.78127     13.35967        -67.42160  10.77190   291   %  1.1916
     292     -80.79977     13.41472        -67.38505  10.80845   292   %  1.1956
     293     -80.78047     13.48000        -67.30047  10.89303   293   %  1.1916
     294     -80.79991     13.53526        -67.26466  10.92885   294   %  1.1956
     295     -80.77965     13.60123        -67.17843  11.01508   295   %  1.1917
     296     -80.79998     13.65667        -67.14330  11.05020   296   %  1.1957
     297     -80.77827     13.72478        -67.05348  11.14002   297   %  1.1917
     298     -80.80004     13.78164        -67.01841  11.17510   298   %  1.1957
     299     -80.77821     13.84927        -66.92894  11.26457   299   %  1.1918
     300     -80.80005     13.90557        -66.89448  11.29903   300   %  1.1959
     301     -80.77747     13.97433        -66.80314  11.39036   301   %  1.1919
     302     -80.80008     14.03099        -66.76910  11.42441   302   %  1.1959
     303     -80.77726     14.09955        -66.67771  11.51579   303   %  1.1920
     304     -80.80008     14.15647        -66.64360  11.54990   304   %  1.1960
     305     -80.77635     14.22699        -66.54936  11.64415   305   %  1.1921
     306     -80.80011     14.28416        -66.51594  11.67756   306   %  1.1961
     307     -80.77546     14.35567        -66.41979  11.77371   307   %  1.1921
     308     -80.80010     14.41303        -66.38707  11.80644   308   %  1.1961
     309     -80.77383     14.48714        -66.28669  11.90681   309   %  1.1921
     310     -80.80003     14.54465        -66.25538  11.93812   310   %  1.1960
     311     -80.77153     14.62208        -66.14945  12.04405   311   %  1.1920
     312     -80.79990     14.68091        -66.11898  12.07452   312   %  1.1960
     313     -80.76928     14.76177        -66.00751  12.18599   313   %  1.1920
     314     -80.79962     14.82116        -65.97847  12.21504   314   %  1.1959
     315     -80.76838     14.90263        -65.86575  12.32776   315   %  1.1920
     316     -80.79955     14.96211        -65.83745  12.35606   316   %  1.1960
     317     -80.76688     15.04574        -65.72113  12.47237   317   %  1.1921
     318     -80.79935     15.10634        -65.69301  12.50049   318   %  1.1960
     319     -80.76488     15.19385        -65.57102  12.62248   319   %  1.1920
     320     -80.79907     15.25575        -65.54332  12.65019   320   %  1.1960
     321     -80.76251     15.34772        -65.41479  12.77871   321   %  1.1920
     322     -80.79849     15.40992        -65.38857  12.80494   322   %  1.1959
     323     -80.75939     15.50774        -65.25164  12.94186   323   %  1.1919
     324     -80.79792     15.57181        -65.22612  12.96739   324   %  1.1959
     325     -80.75656     15.67483        -65.08173  13.11177   325   %  1.1919
     326     -80.79709     15.73948        -65.05761  13.13589   326   %  1.1958
     327     -80.75231     15.85130        -64.90100  13.29250   327   %  1.1917
     328     -80.79575     15.91738        -64.87838  13.31513   328   %  1.1956
     329     -80.75050     16.03400        -64.71650  13.47700   329   %  1.1917
     330     -80.79551     16.10099        -64.69453  13.49898   330   %  1.1957
     331     -80.74666     16.22388        -64.52278  13.67072   331   %  1.1917
     332     -80.79407     16.29258        -64.50149  13.69202   332   %  1.1956
     333     -80.74266     16.42678        -64.31588  13.87762   333   %  1.1916
     334     -80.79265     16.49687        -64.29578  13.89773   334   %  1.1955
     335     -80.74019     16.63805        -64.10214  14.09137   335   %  1.1916
     336     -80.79206     16.70956        -64.08250  14.11101   336   %  1.1955
     337     -80.73472     16.86152        -63.87320  14.32030   337   %  1.1915
     338     -80.78981     16.93571        -63.85409  14.33941   338   %  1.1954
     339     -80.73156     17.10063        -63.63093  14.56257   339   %  1.1914
     340     -80.78877     17.17601        -63.61276  14.58074   340   %  1.1954
     341     -80.72538     17.35430        -63.37108  14.82242   341   %  1.1913
     342     -80.78547     17.43134        -63.35413  14.83938   342   %  1.1952
     343     -80.71778     17.63674        -63.08103  15.11247   343   %  1.1911
     344     -80.78259     17.71788        -63.06471  15.12879   344   %  1.1950


           POTENTIAL ENERGY HAS STOPPED DROPPING


 **********************
 *                    *
 * JOB ENDED NORMALLY *
 *                    *
 **********************



 TOTAL JOB TIME:             0.17 SECONDS

 == MOPAC DONE ==
