 *******************************************************************************
 ** Site#:  999         For non-commercial use only           Version 21.129  **
 *******************************************************************************
 ** Cite this program as: MOPAC2016, Version: 21.129 , James J. P. Stewart,   **
 ** Stewart Computational Chemistry, web-site: HTTP://OpenMOPAC.net.          **
 *******************************************************************************
 **                                                                           **
 **                                MOPAC2016                                  **
 **                                                                           **
 *******************************************************************************

                              PM7 CALCULATION RESULTS

 *******************************************************************************
 *  CALCULATION DONE:                                Sun Nov 20 12:22:49 2022  *
 *  PM7        - The PM7 Hamiltonian to be used
 *
 *
 *
 *                 CHARGE ON SYSTEM = 0
 *
 *
 *
 *  IRC=N      - INTRINSIC REACTION COORDINATE  1 DEFINED
 *  PRECISE    - TIGHTER CRITERIA TO BE USED
 *  THREADS=1  - MULTI-THREADING NOT USED
 *  T=         - A TIME OF 172800.0 SECONDS REQUESTED
 *  DUMP=N     - RESTART FILE WRITTEN EVERY 7200.0 SECONDS REQUESTED
 *  CYCLES=    - DO A MAXIMUM OF 5000 STEPS
 *  OLDENS     - INITIAL DENSITY MATRIX READ OFF DISK
 *******************************************************************************
   pm7 threads=1 charge=0 irc= 1 oldens precise cycles=5000
 title
 title
   ATOM   CHEMICAL          X               Y               Z
  NUMBER   SYMBOL      (ANGSTROMS)     (ANGSTROMS)     (ANGSTROMS)
 
     1       C          0.00000000  *   0.00000000  *   0.00000000  *
     2       O          1.19350230  *   0.00000000  *   0.00000000  *
     3       O         -0.67522604  *   1.19856960  *   0.00000000  *
     4       H         -0.67463551  *  -0.85103702  *  -0.08374709  *
     5       H         -1.14375093  *   1.42933113  *   0.81472089  *
 


          CARTESIAN COORDINATES 

    NO.       ATOM           X           Y           Z

     1         C          0.0000      0.0000      0.0000
     2         O          1.1935      0.0000      0.0000
     3         O         -0.6752      1.1986      0.0000
     4         H         -0.6746     -0.8510     -0.0837
     5         H         -1.1438      1.4293      0.8147

 General Reference for PM7:
 "Optimization of Parameters for Semiempirical Methods VI: More Modifications to the 
 NDDO Approximations and Re-optimization of Parameters", J. J. P. Stewart, J. Mol. Mod., 1:32, 19 (2013)
 https://link.springer.com/article/10.1007/s00894-012-1667-x

           Empirical Formula: C H2 O2  =     5 atoms



      MOLECULAR POINT GROUP   :   C1  


      RHF CALCULATION, NO. OF DOUBLY OCCUPIED LEVELS = 9



          HEAT OF FORMATION =     -78.100733 KCALS/MOLE


          GRADIENT NORM =   0.01763

          MOLECULAR WEIGHT =   46.03


          ESTIMATED TIME TO COMPLETE CALCULATION =        0.00 SECONDS

    FOR POINT-GROUP C1   THERE ARE   1 UNIQUE SYMMETRY FUNCTIONS.

 STEP:   1 TIME =     0.00 SECS, INTEGRAL =      0.00 TIME LEFT: 172800.00
 STEP:   2 TIME =     0.00 SECS, INTEGRAL =      0.00 TIME LEFT: 172800.00
 STEP:   3 TIME =     0.00 SECS, INTEGRAL =      0.01 TIME LEFT: 172799.99
 STEP:   4 TIME =     0.00 SECS, INTEGRAL =      0.01 TIME LEFT: 172799.99
 STEP:   5 TIME =     0.00 SECS, INTEGRAL =      0.01 TIME LEFT: 172799.99
 STEP:   6 TIME =     0.00 SECS, INTEGRAL =      0.01 TIME LEFT: 172799.99
 STEP:   7 TIME =     0.00 SECS, INTEGRAL =      0.02 TIME LEFT: 172799.98
 STEP:   8 TIME =     0.00 SECS, INTEGRAL =      0.02 TIME LEFT: 172799.98
 STEP:   9 TIME =     0.00 SECS, INTEGRAL =      0.02 TIME LEFT: 172799.98
 STEP:  10 TIME =     0.00 SECS, INTEGRAL =      0.02 TIME LEFT: 172799.98
 STEP:  11 TIME =     0.00 SECS, INTEGRAL =      0.02 TIME LEFT: 172799.98
 STEP:  12 TIME =     0.00 SECS, INTEGRAL =      0.03 TIME LEFT: 172799.97
 STEP:  13 TIME =     0.00 SECS, INTEGRAL =      0.03 TIME LEFT: 172799.97
 STEP:  14 TIME =     0.00 SECS, INTEGRAL =      0.03 TIME LEFT: 172799.97
 STEP:  15 TIME =     0.00 SECS, INTEGRAL =      0.03 TIME LEFT: 172799.97
  Stopping critera: r_ij>5*r_ij(0)
 
           INITIAL VELOCITY IN DRC (Angstroms/Femtosecond)
         0.00783         0.00390        -0.02941
         0.00571         0.00143         0.02807
        -0.04876        -0.02685        -0.01134
        -0.00049         0.02181        -0.16040
         0.59056         0.33519         0.24516
 
  Deltat    =   0.24 fs
  Maxcyc    =      5000
  Jloop_lim =      5000
 
  Initial distance matrix
  Bond#     i     j    Ini_value(A)
      1     1     2          1.194
      2     1     3          1.376
      3     1     4          1.089
      4     1     5          2.004
      5     2     3          2.220
      6     2     4          2.055
      7     2     5          2.858
      8     3     4          2.051
      9     3     5          0.968
     10     4     5          2.495
 
 


     POINT   POTENTIAL  +  ENERGY LOST   =   TOTAL      ERROR    REF%   MOVEMENT
       1     -78.10073      0.00000        -78.10073   0.00000     1   %  0.0000
       2     -78.10075      0.00000        -78.10075  -0.00001     2   %  0.0020
       3     -78.10082      0.00000        -78.10082  -0.00009     3   %  0.0044
       4     -78.10196      0.00000        -78.10196  -0.00123     4   %  0.0152
       5     -78.10443      0.00000        -78.10443  -0.00369     5   %  0.0261
       6     -78.10820      0.00000        -78.10820  -0.00747     6   %  0.0368
       7     -78.11330      0.00000        -78.11330  -0.01257     7   %  0.0476
       8     -78.11979      0.00000        -78.11979  -0.01905     8   %  0.0585
       9     -78.12762      0.00000        -78.12762  -0.02689     9   %  0.0693
      10     -78.13677      0.00000        -78.13677  -0.03604    10   %  0.0801
      11     -78.14738      0.00000        -78.14738  -0.04665    11   %  0.0909
      12     -78.15944      0.00000        -78.15944  -0.05870    12   %  0.1018
      13     -78.17295      0.00000        -78.17295  -0.07222    13   %  0.1126
      14     -78.18800      0.00000        -78.18800  -0.01504    14   %  0.1234
      15     -78.20258      0.02517        -78.17741  -0.00445    15   %  0.1329
      16     -78.21431      0.05388        -78.16043   0.01253    16   %  0.1414
      17     -78.22557      0.09121        -78.13436   0.03860    17   %  0.1477
      18     -78.23733      0.13473        -78.10261   0.07035    18   %  0.1545
      19     -78.25016      0.18109        -78.06907   0.10389    19   %  0.1608
      20     -78.26431      0.22713        -78.03718   0.13577    20   %  0.1681
      21     -78.27977      0.27209        -78.00768   0.16527    21   %  0.1749
      22     -78.29652      0.31629        -77.98023   0.19272    22   %  0.1829
      23     -78.31508      0.36015        -77.95493   0.21803    23   %  0.1904
      24     -78.33500      0.40266        -77.93233   0.24062    24   %  0.1990
      25     -78.35699      0.44532        -77.91167   0.26128    25   %  0.2072
      26     -78.38055      0.48623        -77.89432   0.27863    26   %  0.2164
      27     -78.40659      0.52775        -77.87884   0.29412    27   %  0.2255
      28     -78.43461      0.56841        -77.86620   0.30675    28   %  0.2354
      29     -78.46466      0.60866        -77.85600   0.31695    29   %  0.2450
      30     -78.49688      0.64827        -77.84861   0.32434    30   %  0.2554
      31     -78.53169      0.68851        -77.84318   0.32977    31   %  0.2657
      32     -78.56813      0.72819        -77.83994   0.33301    32   %  0.2764
      33     -78.60632      0.76833        -77.83798   0.33497    33   %  0.2869
      34     -78.64658      0.80937        -77.83721   0.33574    34   %  0.2978
      35     -78.68860      0.85176        -77.83684   0.33611    35   %  0.3086
      36     -78.73275      0.89588        -77.83687   0.33608    36   %  0.3196
      37     -78.79298      0.95590        -77.83708   0.33587    37   %  0.3339
      38     -78.84070      1.00445        -77.83625   0.33670    38   %  0.3448
      39     -78.89029      1.05362        -77.83668   0.33628    39   %  0.3558
      40     -78.94124      1.10438        -77.83686   0.33610    40   %  0.3667
      41     -78.99325      1.15626        -77.83699   0.33597    41   %  0.3775
      42     -79.04679      1.20969        -77.83710   0.33586    42   %  0.3883
      43     -79.10243      1.26524        -77.83719   0.33576    43   %  0.3991
      44     -79.15953      1.32228        -77.83726   0.33570    44   %  0.4100
      45     -79.21829      1.38099        -77.83729   0.33566    45   %  0.4208
      46     -79.29152      1.45413        -77.83738   0.33557    46   %  0.4340
      47     -79.35424      1.51741        -77.83683   0.33612    47   %  0.4449
      48     -79.41813      1.58118        -77.83696   0.33599    48   %  0.4558
      49     -79.48410      1.64755        -77.83656   0.33639    49   %  0.4667
      50     -79.55147      1.71518        -77.83629   0.33666    50   %  0.4776
      51     -79.62018      1.78414        -77.83604   0.33692    51   %  0.4885
      52     -79.68954      1.85374        -77.83579   0.33716    52   %  0.4992
      53     -79.76029      1.92473        -77.83555   0.33740    53   %  0.5100
      54     -79.83374      1.99842        -77.83532   0.33763    54   %  0.5209
      55     -79.90762      2.07254        -77.83508   0.33787    55   %  0.5316
      56     -79.98257      2.14772        -77.83486   0.33810    56   %  0.5423
      57     -80.05994      2.22531        -77.83463   0.33832    57   %  0.5531
      58     -80.13910      2.30470        -77.83441   0.33855    58   %  0.5640
      59     -80.21955      2.38537        -77.83418   0.33877    59   %  0.5749
      60     -80.30133      2.46737        -77.83396   0.33900    60   %  0.5857
      61     -80.38337      2.54963        -77.83374   0.33921    61   %  0.5964
      62     -80.46791      2.63438        -77.83353   0.33942    62   %  0.6073
      63     -80.55325      2.71993        -77.83332   0.33964    63   %  0.6180
      64     -80.63887      2.80576        -77.83311   0.33984    64   %  0.6287
      65     -80.72585      2.89294        -77.83291   0.34004    65   %  0.6393
      66     -80.81408      2.98136        -77.83272   0.34023    66   %  0.6500
      67     -80.90428      3.07175        -77.83253   0.34043    67   %  0.6607
      68     -80.99538      3.16305        -77.83234   0.34062    68   %  0.6714
      69     -81.08751      3.25536        -77.83215   0.34080    69   %  0.6821
      70     -81.17991      3.34795        -77.83197   0.34098    70   %  0.6927
      71     -81.27374      3.44194        -77.83180   0.34116    71   %  0.7033
      72     -81.36892      3.53730        -77.83163   0.34133    72   %  0.7140
      73     -81.46439      3.63293        -77.83146   0.34150    73   %  0.7245
      74     -81.56106      3.72976        -77.83130   0.34166    74   %  0.7351
      75     -81.65891      3.82777        -77.83114   0.34181    75   %  0.7457
      76     -81.75719      3.92620        -77.83099   0.34196    76   %  0.7562
      77     -81.85716      4.02632        -77.83084   0.34211    77   %  0.7668
      78     -81.95881      4.12811        -77.83070   0.34225    78   %  0.7775
      79     -82.06102      4.23046        -77.83056   0.34239    79   %  0.7881
      80     -82.16278      4.33236        -77.83042   0.34253    80   %  0.7987
      81     -82.26638      4.43608        -77.83030   0.34266    81   %  0.8093
      82     -82.37083      4.54065        -77.83018   0.34278    82   %  0.8199
      83     -82.47535      4.64529        -77.83006   0.34290    83   %  0.8304
      84     -82.58017      4.75022        -77.82995   0.34301    84   %  0.8409
      85     -82.68640      4.85656        -77.82984   0.34311    85   %  0.8515
      86     -82.79287      4.96312        -77.82975   0.34321    86   %  0.8620
      87     -82.89984      5.07019        -77.82965   0.34330    87   %  0.8725
      88     -83.00665      5.17708        -77.82957   0.34339    88   %  0.8830
      89     -83.11494      5.28545        -77.82949   0.34347    89   %  0.8935
      90     -83.22261      5.39320        -77.82941   0.34354    90   %  0.9039
      91     -83.33125      5.50190        -77.82935   0.34361    91   %  0.9144
      92     -83.43993      5.61064        -77.82929   0.34367    92   %  0.9248
      93     -83.54937      5.72014        -77.82923   0.34372    93   %  0.9352
      94     -83.65929      5.83010        -77.82918   0.34377    94   %  0.9457
      95     -83.77198      5.94283        -77.82914   0.34381    95   %  0.9564
      96     -83.89506      6.06595        -77.82910   0.34385    96   %  0.9680
      97     -84.03259      6.20353        -77.82906   0.34389    97   %  0.9810
      98     -84.18019      6.35118        -77.82901   0.34394    98   %  0.9949
      99     -84.33761      6.50864        -77.82898   0.34398    99   %  1.0097
     100     -84.50632      6.67737        -77.82895   0.34401   100   %  1.0255
     101     -84.67363      6.84469        -77.82894   0.34401   101   %  1.0412
     102     -84.84055      7.01159        -77.82897   0.34399   102   %  1.0568
     103     -85.00678      7.17776        -77.82901   0.34394   103   %  1.0724
     104     -85.17143      7.34234        -77.82909   0.34387   104   %  1.0879
     105     -85.30461      7.47541        -77.82920   0.34375   105   %  1.1004
     106     -85.41064      7.58133        -77.82930   0.34365   106   %  1.1104
     107     -85.51701      7.68763        -77.82938   0.34358   107   %  1.1205
     108     -85.62312      7.79367        -77.82946   0.34350   108   %  1.1306
     109     -85.72828      7.89874        -77.82954   0.34341   109   %  1.1406
     110     -85.83364      8.00400        -77.82964   0.34332   110   %  1.1507
     111     -85.93752      8.10778        -77.82974   0.34321   111   %  1.1607
     112     -86.04124      8.21139        -77.82985   0.34310   112   %  1.1707
     113     -86.14405      8.31408        -77.82997   0.34298   113   %  1.1807
     114     -86.24609      8.41600        -77.83009   0.34286   114   %  1.1906
     115     -86.34636      8.51613        -77.83023   0.34273   115   %  1.2005
     116     -86.44578      8.61542        -77.83036   0.34259   116   %  1.2103
     117     -86.54451      8.71401        -77.83051   0.34245   117   %  1.2201
     118     -86.64198      8.81131        -77.83066   0.34229   118   %  1.2299
     119     -86.73936      8.90854        -77.83082   0.34214   119   %  1.2398
     120     -86.83477      9.00378        -77.83099   0.34197   120   %  1.2495
     121     -86.92910      9.09792        -77.83118   0.34177   121   %  1.2592
     122     -87.02264      9.19127        -77.83137   0.34158   122   %  1.2689
     123     -87.11441      9.28286        -77.83155   0.34140   123   %  1.2785
     124     -87.20571      9.37395        -77.83176   0.34119   124   %  1.2882
     125     -87.29543      9.46346        -77.83198   0.34098   125   %  1.2978
     126     -87.38380      9.55160        -77.83219   0.34076   126   %  1.3073
     127     -87.47123      9.63881        -77.83242   0.34054   127   %  1.3169
     128     -87.55814      9.72549        -77.83265   0.34030   128   %  1.3265
     129     -87.64283      9.80994        -77.83289   0.34006   129   %  1.3361
     130     -87.72659      9.89345        -77.83314   0.33981   130   %  1.3456
     131     -87.80892      9.97552        -77.83340   0.33956   131   %  1.3551
     132     -87.88980     10.05614        -77.83366   0.33930   132   %  1.3647
     133     -87.96808     10.13415        -77.83393   0.33903   133   %  1.3740
     134     -88.04575     10.21155        -77.83420   0.33876   134   %  1.3834
     135     -88.12125     10.28677        -77.83448   0.33848   135   %  1.3928
     136     -88.19569     10.36093        -77.83476   0.33819   136   %  1.4022
     137     -88.26862     10.43356        -77.83506   0.33790   137   %  1.4115
     138     -88.33998     10.50462        -77.83536   0.33759   138   %  1.4209
     139     -88.40875     10.57308        -77.83567   0.33728   139   %  1.4301
     140     -88.47669     10.64071        -77.83598   0.33697   140   %  1.4394
     141     -88.54241     10.70610        -77.83631   0.33664   141   %  1.4486
     142     -88.60558     10.76894        -77.83664   0.33632   142   %  1.4577
     143     -88.66715     10.83019        -77.83697   0.33599   143   %  1.4668
     144     -88.72705     10.88975        -77.83730   0.33565   144   %  1.4759
     145     -88.78552     10.94787        -77.83765   0.33531   145   %  1.4850
     146     -88.84165     11.00364        -77.83801   0.33495   146   %  1.4941
     147     -88.89552     11.05715        -77.83836   0.33459   147   %  1.5030
     148     -88.94793     11.10920        -77.83873   0.33423   148   %  1.5120
     149     -88.99848     11.15937        -77.83910   0.33385   149   %  1.5210
     150     -89.04703     11.20754        -77.83949   0.33346   150   %  1.5300
     151     -89.09288     11.25300        -77.83988   0.33307   151   %  1.5388
     152     -89.13727     11.29699        -77.84028   0.33268   152   %  1.5478
     153     -89.17924     11.33856        -77.84069   0.33227   153   %  1.5566
     154     -89.21936     11.37826        -77.84110   0.33185   154   %  1.5655
     155     -89.25725     11.41572        -77.84153   0.33143   155   %  1.5743
     156     -89.29286     11.45089        -77.84196   0.33099   156   %  1.5831
     157     -89.32635     11.48394        -77.84241   0.33055   157   %  1.5919
     158     -89.35725     11.51439        -77.84286   0.33009   158   %  1.6006
     159     -89.38617     11.54285        -77.84332   0.32963   159   %  1.6093
     160     -89.41276     11.56895        -77.84380   0.32915   160   %  1.6180
     161     -89.43673     11.59244        -77.84429   0.32866   161   %  1.6265
     162     -89.45856     11.61378        -77.84478   0.32817   162   %  1.6352
     163     -89.47782     11.63252        -77.84530   0.32766   163   %  1.6436
     164     -89.49462     11.64882        -77.84581   0.32715   164   %  1.6522
     165     -89.50894     11.66294        -77.84601   0.32694   165   %  1.6601
     166     -89.51692     11.67635        -77.84057   0.33238   166   %  1.6699
     167     -89.51696     11.70305        -77.81391   0.35904   167   %  1.6685
     168     -89.52249     11.74895        -77.77354   0.39941   168   %  1.6753
     169     -89.52102     11.80149        -77.71953   0.45342   169   %  1.6724
     170     -89.52672     11.85260        -77.67412   0.49883   170   %  1.6790
     171     -89.52409     11.90644        -77.61766   0.55530   171   %  1.6759
     172     -89.52994     11.95853        -77.57141   0.60155   172   %  1.6825
     173     -89.52738     12.01122        -77.51616   0.65679   173   %  1.6791
     174     -89.53240     12.06187        -77.47054   0.70242   174   %  1.6855
     175     -89.52936     12.11460        -77.41476   0.75819   175   %  1.6818
     176     -89.53452     12.16511        -77.36941   0.80354   176   %  1.6880
     177     -89.53064     12.21840        -77.31224   0.86072   177   %  1.6842
     178     -89.53601     12.27019        -77.26582   0.90713   178   %  1.6904
     179     -89.53212     12.32350        -77.20861   0.96434   179   %  1.6864
     180     -89.53705     12.37539        -77.16166   1.01130   180   %  1.6925
     181     -89.53305     12.42933        -77.10373   1.06923   181   %  1.6883
     182     -89.53798     12.48154        -77.05644   1.11651   182   %  1.6942
     183     -89.53411     12.53476        -76.99935   1.17361   183   %  1.6900
     184     -89.53880     12.58562        -76.95318   1.21978   184   %  1.6958
     185     -89.53459     12.63834        -76.89624   1.27671   185   %  1.6914
     186     -89.53907     12.69042        -76.84865   1.32430   186   %  1.6973
     187     -89.53552     12.74317        -76.79235   1.38060   187   %  1.6928
     188     -89.53944     12.79442        -76.74502   1.42793   188   %  1.6985
     189     -89.53590     12.84699        -76.68892   1.48404   189   %  1.6940
     190     -89.53958     12.89884        -76.64074   1.53221   190   %  1.6996
     191     -89.53606     12.95259        -76.58346   1.58949   191   %  1.6949
     192     -89.53999     13.00466        -76.53533   1.63763   192   %  1.7005
     193     -89.53603     13.05875        -76.47728   1.69567   193   %  1.6958
     194     -89.54060     13.10991        -76.43070   1.74226   194   %  1.7012
     195     -89.53578     13.16353        -76.37225   1.80070   195   %  1.6965
     196     -89.54093     13.21482        -76.32611   1.84685   196   %  1.7019
     197     -89.53586     13.26807        -76.26779   1.90517   197   %  1.6972
     198     -89.54108     13.31924        -76.22184   1.95112   198   %  1.7026
     199     -89.53587     13.37257        -76.16330   2.00965   199   %  1.6977
     200     -89.54114     13.42413        -76.11701   2.05594   200   %  1.7032
     201     -89.53596     13.47768        -76.05828   2.11467   201   %  1.6983
     202     -89.54129     13.52897        -76.01232   2.16063   202   %  1.7037
     203     -89.53537     13.58393        -75.95144   2.22152   203   %  1.6986
     204     -89.54163     13.63611        -75.90551   2.26744   204   %  1.7040
     205     -89.53527     13.69087        -75.84440   2.32856   205   %  1.6990
     206     -89.54176     13.74283        -75.79893   2.37402   206   %  1.7044
     207     -89.53518     13.79749        -75.73768   2.43527   207   %  1.6994
     208     -89.54173     13.85001        -75.69172   2.48123   208   %  1.7048
     209     -89.53511     13.90533        -75.62978   2.54317   209   %  1.6997
     210     -89.54186     13.95787        -75.58399   2.58896   210   %  1.7050
     211     -89.53545     14.01201        -75.52344   2.64951   211   %  1.7000
     212     -89.54188     14.06337        -75.47850   2.69445   212   %  1.7053
     213     -89.53505     14.11820        -75.41685   2.75611   213   %  1.7002
     214     -89.54208     14.17006        -75.37201   2.80094   214   %  1.7055
     215     -89.53471     14.22539        -75.30931   2.86364   215   %  1.7004
     216     -89.54212     14.27802        -75.26410   2.90885   216   %  1.7057
     217     -89.53478     14.33330        -75.20148   2.97147   217   %  1.7006
     218     -89.54224     14.38524        -75.15701   3.01595   218   %  1.7059
     219     -89.53487     14.43966        -75.09522   3.07774   219   %  1.7008
     220     -89.54211     14.49168        -75.05043   3.12252   220   %  1.7061
     221     -89.53443     14.54774        -74.98670   3.18626   221   %  1.7009
     222     -89.54252     14.59961        -74.94292   3.23004   222   %  1.7061
     223     -89.53375     14.65596        -74.87779   3.29516   223   %  1.7009
     224     -89.54272     14.70832        -74.83440   3.33855   224   %  1.7062
     225     -89.53384     14.76381        -74.77003   3.40293   225   %  1.7010
     226     -89.54277     14.81543        -74.72734   3.44561   226   %  1.7063
     227     -89.53355     14.87117        -74.66239   3.51057   227   %  1.7011
     228     -89.54298     14.92252        -74.62047   3.55249   228   %  1.7063
     229     -89.53305     14.97862        -74.55443   3.61852   229   %  1.7011
     230     -89.54321     15.02995        -74.51326   3.65969   230   %  1.7063
     231     -89.53243     15.08663        -74.44580   3.72715   231   %  1.7011
     232     -89.54344     15.13812        -74.40532   3.76763   232   %  1.7063
     233     -89.53189     15.19513        -74.33676   3.83619   233   %  1.7011
     234     -89.54367     15.24641        -74.29725   3.87570   234   %  1.7063
     235     -89.53125     15.30382        -74.22744   3.94552   235   %  1.7011
     236     -89.54384     15.35537        -74.18847   3.98449   236   %  1.7063
     237     -89.53050     15.41376        -74.11674   4.05621   237   %  1.7011
     238     -89.54405     15.46560        -74.07845   4.09450   238   %  1.7062
     239     -89.53014     15.52382        -74.00633   4.16663   239   %  1.7011
     240     -89.54402     15.57637        -73.96765   4.20530   240   %  1.7063
     241     -89.52962     15.63610        -73.89351   4.27944   241   %  1.7011
     242     -89.54430     15.68816        -73.85614   4.31682   242   %  1.7062
     243     -89.52887     15.74800        -73.78087   4.39208   243   %  1.7010
     244     -89.54437     15.80063        -73.74374   4.42922   244   %  1.7062
     245     -89.52857     15.86074        -73.66783   4.50512   245   %  1.7011
     246     -89.54440     15.91376        -73.63064   4.54231   246   %  1.7063
     247     -89.52872     15.97344        -73.55529   4.61767   247   %  1.7011
     248     -89.54441     16.02587        -73.51853   4.65442   248   %  1.7063
     249     -89.52855     16.08566        -73.44289   4.73006   249   %  1.7012
     250     -89.54437     16.13883        -73.40554   4.76742   250   %  1.7064
     251     -89.52840     16.19944        -73.32896   4.84399   251   %  1.7012
     252     -89.54444     16.25260        -73.29183   4.88112   252   %  1.7064
     253     -89.52783     16.31414        -73.21369   4.95926   253   %  1.7011
     254     -89.54458     16.36722        -73.17736   4.99559   254   %  1.7063
     255     -89.52736     16.42882        -73.09854   5.07442   255   %  1.7011
     256     -89.54468     16.48154        -73.06314   5.10982   256   %  1.7063
     257     -89.52626     16.54462        -72.98164   5.19131   257   %  1.7010
     258     -89.54477     16.59857        -72.94620   5.22676   258   %  1.7062
     259     -89.52578     16.66227        -72.86351   5.30944   259   %  1.7010
     260     -89.54480     16.71665        -72.82815   5.34480   260   %  1.7062
     261     -89.52582     16.78004        -72.74578   5.42718   261   %  1.7011
     262     -89.54481     16.83414        -72.71067   5.46229   262   %  1.7063
     263     -89.52562     16.89782        -72.62780   5.54516   263   %  1.7011
     264     -89.54490     16.95107        -72.59383   5.57913   264   %  1.7062
     265     -89.52520     17.01459        -72.51061   5.66234   265   %  1.7011
     266     -89.54493     17.06773        -72.47720   5.69576   266   %  1.7062
     267     -89.52354     17.13423        -72.38931   5.78364   267   %  1.7009
     268     -89.54500     17.18953        -72.35548   5.81748   268   %  1.7061
     269     -89.52251     17.25792        -72.26460   5.90836   269   %  1.7008
     270     -89.54506     17.31282        -72.23224   5.94071   270   %  1.7060
     271     -89.52083     17.38331        -72.13753   6.03543   271   %  1.7007
     272     -89.54506     17.43895        -72.10611   6.06684   272   %  1.7059
     273     -89.51886     17.51232        -72.00654   6.16641   273   %  1.7005
     274     -89.54499     17.56857        -71.97642   6.19653   274   %  1.7057
     275     -89.51788     17.64258        -71.87531   6.29765   275   %  1.7005
     276     -89.54495     17.69906        -71.84589   6.32707   276   %  1.7056
     277     -89.51709     17.77391        -71.74318   6.42977   277   %  1.7004
     278     -89.54487     17.83040        -71.71446   6.45849   278   %  1.7056
     279     -89.51452     17.90991        -71.60461   6.56835   279   %  1.7002
     280     -89.54461     17.96809        -71.57652   6.59644   280   %  1.7054
     281     -89.51243     18.05121        -71.46122   6.71173   281   %  1.7001
     282     -89.54425     18.10944        -71.43481   6.73814   282   %  1.7052
     283     -89.51050     18.19538        -71.31512   6.85783   283   %  1.7000
     284     -89.54393     18.25417        -71.28976   6.88319   284   %  1.7051
     285     -89.50690     18.34650        -71.16040   7.01256   285   %  1.6997
     286     -89.54331     18.40789        -71.13542   7.03754   286   %  1.7049
     287     -89.50469     18.50484        -70.99985   7.17310   287   %  1.6996
     288     -89.54289     18.56714        -70.97575   7.19720   288   %  1.7048
     289     -89.50285     18.66740        -70.83544   7.33751   289   %  1.6995
     290     -89.54220     18.72939        -70.81281   7.36014   290   %  1.7046
     291     -89.49778     18.84004        -70.65774   7.51521   291   %  1.6992
     292     -89.54082     18.90495        -70.63587   7.53708   292   %  1.7043
     293     -89.49431     19.02431        -70.47001   7.70295   293   %  1.6990
     294     -89.53970     19.09004        -70.44966   7.72329   294   %  1.7041
     295     -89.49007     19.21882        -70.27126   7.90170   295   %  1.6988
     296     -89.53846     19.28700        -70.25146   7.92149   296   %  1.7039
     297     -89.48373     19.43026        -70.05347   8.11949   297   %  1.6984
     298     -89.53632     19.50210        -70.03422   8.13873   298   %  1.7036
     299     -89.47862     19.66079        -69.81783   8.35512   299   %  1.6982
     300     -89.53422     19.73420        -69.80002   8.37293   300   %  1.7034
     301     -89.47066     19.91386        -69.55681   8.61615   301   %  1.6978
     302     -89.53082     19.99085        -69.53997   8.63299   302   %  1.7030
     303     -89.46759     20.18722        -69.28037   8.89258   303   %  1.6978
     304     -89.52908     20.26364        -69.26544   8.90752   304   %  1.7029
     305     -89.45925     20.48131        -68.97794   9.19501   305   %  1.6974
     306     -89.52521     20.56186        -68.96335   9.20961   306   %  1.7025
     307     -89.44918     20.81471        -68.63447   9.53848   307   %  1.6970
     308     -89.52049     20.89981        -68.62068   9.55227   308   %  1.7022
     309     -89.43890     21.19278        -68.24612   9.92683   309   %  1.6967
     310     -89.51535     21.28207        -68.23328   9.93967   310   %  1.7018


           POTENTIAL ENERGY HAS STOPPED DROPPING


 **********************
 *                    *
 * JOB ENDED NORMALLY *
 *                    *
 **********************



 TOTAL JOB TIME:             0.16 SECONDS

 == MOPAC DONE ==
