 *******************************************************************************
 ** Site#:  999         For non-commercial use only           Version 21.129  **
 *******************************************************************************
 ** Cite this program as: MOPAC2016, Version: 21.129 , James J. P. Stewart,   **
 ** Stewart Computational Chemistry, web-site: HTTP://OpenMOPAC.net.          **
 *******************************************************************************
 **                                                                           **
 **                                MOPAC2016                                  **
 **                                                                           **
 *******************************************************************************

                              PM7 CALCULATION RESULTS

 *******************************************************************************
 *  CALCULATION DONE:                                Sun Nov 20 12:22:50 2022  *
 *  PM7        - The PM7 Hamiltonian to be used
 *
 *
 *
 *                 CHARGE ON SYSTEM = 0
 *
 *
 *
 *  IRC=N      - INTRINSIC REACTION COORDINATE -1 DEFINED
 *  PRECISE    - TIGHTER CRITERIA TO BE USED
 *  THREADS=1  - MULTI-THREADING NOT USED
 *  T=         - A TIME OF 172800.0 SECONDS REQUESTED
 *  DUMP=N     - RESTART FILE WRITTEN EVERY 7200.0 SECONDS REQUESTED
 *  CYCLES=    - DO A MAXIMUM OF 5000 STEPS
 *  OLDENS     - INITIAL DENSITY MATRIX READ OFF DISK
 *******************************************************************************
   pm7 threads=1 charge=0 irc=-1 oldens precise cycles=5000
 title
 title
   ATOM   CHEMICAL          X               Y               Z
  NUMBER   SYMBOL      (ANGSTROMS)     (ANGSTROMS)     (ANGSTROMS)
 
     1       C          0.22103571  *   0.05985372  *   0.18394324  *
     2       O          0.62602277  *   0.19176629  *   1.26432062  *
     3       O          1.03765711  *  -0.08396921  *  -1.02887031  *
     4       H         -0.16712189  *   0.13828368  *  -1.19554681  *
     5       H          1.90759514  *   0.14101891  *  -1.35132387  *
 


          CARTESIAN COORDINATES 

    NO.       ATOM           X           Y           Z

     1         C          0.2210      0.0599      0.1839
     2         O          0.6260      0.1918      1.2643
     3         O          1.0377     -0.0840     -1.0289
     4         H         -0.1671      0.1383     -1.1955
     5         H          1.9076      0.1410     -1.3513

 General Reference for PM7:
 "Optimization of Parameters for Semiempirical Methods VI: More Modifications to the 
 NDDO Approximations and Re-optimization of Parameters", J. J. P. Stewart, J. Mol. Mod., 1:32, 19 (2013)
 https://link.springer.com/article/10.1007/s00894-012-1667-x

           Empirical Formula: C H2 O2  =     5 atoms



      MOLECULAR POINT GROUP   :   C1  


      RHF CALCULATION, NO. OF DOUBLY OCCUPIED LEVELS = 9



          HEAT OF FORMATION =     -35.710498 KCALS/MOLE


          GRADIENT NORM =   0.00898

          MOLECULAR WEIGHT =   46.03


          ESTIMATED TIME TO COMPLETE CALCULATION =        0.00 SECONDS

    FOR POINT-GROUP C1   THERE ARE   1 UNIQUE SYMMETRY FUNCTIONS.

 STEP:   1 TIME =     0.00 SECS, INTEGRAL =      0.00 TIME LEFT: 172800.00
 STEP:   2 TIME =     0.00 SECS, INTEGRAL =      0.00 TIME LEFT: 172800.00
 STEP:   3 TIME =     0.00 SECS, INTEGRAL =      0.01 TIME LEFT: 172799.99
 STEP:   4 TIME =     0.00 SECS, INTEGRAL =      0.01 TIME LEFT: 172799.99
 STEP:   5 TIME =     0.00 SECS, INTEGRAL =      0.01 TIME LEFT: 172799.99
 STEP:   6 TIME =     0.00 SECS, INTEGRAL =      0.01 TIME LEFT: 172799.99
 STEP:   7 TIME =     0.00 SECS, INTEGRAL =      0.02 TIME LEFT: 172799.98
 STEP:   8 TIME =     0.00 SECS, INTEGRAL =      0.02 TIME LEFT: 172799.98
 STEP:   9 TIME =     0.00 SECS, INTEGRAL =      0.02 TIME LEFT: 172799.98
 STEP:  10 TIME =     0.00 SECS, INTEGRAL =      0.02 TIME LEFT: 172799.98
 STEP:  11 TIME =     0.00 SECS, INTEGRAL =      0.02 TIME LEFT: 172799.98
 STEP:  12 TIME =     0.00 SECS, INTEGRAL =      0.02 TIME LEFT: 172799.98
 STEP:  13 TIME =     0.00 SECS, INTEGRAL =      0.03 TIME LEFT: 172799.97
 STEP:  14 TIME =     0.00 SECS, INTEGRAL =      0.03 TIME LEFT: 172799.97
 STEP:  15 TIME =     0.00 SECS, INTEGRAL =      0.03 TIME LEFT: 172799.97
  Stopping critera: r_ij>5*r_ij(0)
 
           INITIAL VELOCITY IN DRC (Angstroms/Femtosecond)
         0.04468        -0.04338        -0.01291
         0.01461         0.00379         0.00127
        -0.01724        -0.01156         0.00050
        -0.34050         0.64982         0.05921
        -0.15009        -0.00957         0.06661
 
  Deltat    =   0.24 fs
  Maxcyc    =      5000
  Jloop_lim =      5000
 
  Initial distance matrix
  Bond#     i     j    Ini_value(A)
      1     1     2          1.161
      2     1     3          1.469
      3     1     4          1.435
      4     1     5          2.282
      5     2     3          2.346
      6     2     4          2.585
      7     2     5          2.913
      8     3     4          1.236
      9     3     5          0.955
     10     4     5          2.081
 
 


     POINT   POTENTIAL  +  ENERGY LOST   =   TOTAL      ERROR    REF%   MOVEMENT
       1     -35.71050      0.00000        -35.71050   0.00000     1   %  0.0000
       2     -35.71077      0.00000        -35.71077  -0.00027     2   %  0.0020
       3     -35.71157      0.00000        -35.71157  -0.00108     3   %  0.0040
       4     -35.72496      0.00000        -35.72496  -0.01446     4   %  0.0146
       5     -35.75370      0.00000        -35.75370  -0.02874     5   %  0.0252
       6     -35.79913      0.09378        -35.70534   0.01962     6   %  0.0360
       7     -35.85808      0.16132        -35.69676   0.02820     7   %  0.0464
       8     -35.93399      0.23915        -35.69483   0.03013     8   %  0.0570
       9     -36.02580      0.33253        -35.69326   0.03170     9   %  0.0677
      10     -36.13281      0.44129        -35.69152   0.03344    10   %  0.0782
      11     -36.25785      0.56816        -35.68969   0.03528    11   %  0.0890
      12     -36.39868      0.71100        -35.68768   0.03728    12   %  0.0997
      13     -36.55496      0.86938        -35.68559   0.03938    13   %  0.1104
      14     -36.72775      1.04431        -35.68345   0.04151    14   %  0.1212
      15     -36.91709      1.23585        -35.68125   0.04371    15   %  0.1319
      16     -37.12261      1.44362        -35.67899   0.04597    16   %  0.1427
      17     -37.33989      1.66319        -35.67670   0.04826    17   %  0.1533
      18     -37.57355      1.89910        -35.67446   0.05051    18   %  0.1640
      19     -37.82569      2.15349        -35.67219   0.05277    19   %  0.1747
      20     -38.08887      2.41900        -35.66986   0.05510    20   %  0.1854
      21     -38.36802      2.70042        -35.66760   0.05736    21   %  0.1961
      22     -38.66010      2.99477        -35.66532   0.05964    22   %  0.2067
      23     -38.96932      3.30623        -35.66308   0.06188    23   %  0.2174
      24     -39.29084      3.63002        -35.66082   0.06414    24   %  0.2281
      25     -39.62843      3.96982        -35.65860   0.06636    25   %  0.2389
      26     -39.97737      4.32098        -35.65638   0.06858    26   %  0.2496
      27     -40.33626      4.68204        -35.65422   0.07074    27   %  0.2602
      28     -40.70816      5.05603        -35.65213   0.07283    28   %  0.2708
      29     -41.09846      5.44839        -35.65007   0.07489    29   %  0.2816
      30     -41.49407      5.84608        -35.64800   0.07696    30   %  0.2922
      31     -41.90835      6.26233        -35.64603   0.07894    31   %  0.3030
      32     -42.33440      6.69035        -35.64405   0.08091    32   %  0.3139
      33     -42.77032      7.12821        -35.64211   0.08285    33   %  0.3247
      34     -43.21118      7.57093        -35.64025   0.08471    34   %  0.3354
      35     -43.66362      8.02514        -35.63848   0.08648    35   %  0.3461
      36     -44.12999      8.49323        -35.63676   0.08820    36   %  0.3569
      37     -44.60677      8.97170        -35.63508   0.08988    37   %  0.3678
      38     -45.08789      9.45444        -35.63345   0.09151    38   %  0.3786
      39     -45.58078      9.94887        -35.63191   0.09305    39   %  0.3894
      40     -46.07873     10.44830        -35.63043   0.09453    40   %  0.4002
      41     -46.57934     10.95032        -35.62903   0.09593    41   %  0.4110
      42     -47.08623     11.45851        -35.62772   0.09724    42   %  0.4217
      43     -47.60560     11.97913        -35.62648   0.09848    43   %  0.4325
      44     -48.12996     12.50468        -35.62528   0.09968    44   %  0.4433
      45     -48.65772     13.03356        -35.62416   0.10080    45   %  0.4541
      46     -49.19441     13.57130        -35.62312   0.10184    46   %  0.4650
      47     -49.73671     14.11458        -35.62213   0.10283    47   %  0.4759
      48     -50.27777     14.65656        -35.62122   0.10374    48   %  0.4867
      49     -50.82646     15.20608        -35.62038   0.10458    49   %  0.4976
      50     -51.37512     15.75550        -35.61962   0.10534    50   %  0.5084
      51     -51.93406     16.31514        -35.61892   0.10604    51   %  0.5194
      52     -52.48537     16.86708        -35.61829   0.10667    52   %  0.5302
      53     -53.04316     17.42543        -35.61773   0.10723    53   %  0.5411
      54     -53.60054     17.98330        -35.61724   0.10772    54   %  0.5519
      55     -54.16785     18.55104        -35.61682   0.10815    55   %  0.5629
      56     -54.72670     19.11025        -35.61645   0.10851    56   %  0.5738
      57     -55.28658     19.67043        -35.61615   0.10881    57   %  0.5846
      58     -55.85114     20.23522        -35.61592   0.10904    58   %  0.5956
      59     -56.41476     20.79902        -35.61574   0.10922    59   %  0.6065
      60     -56.97841     21.36279        -35.61562   0.10934    60   %  0.6175
      61     -57.54294     21.92738        -35.61556   0.10940    61   %  0.6285
      62     -58.11088     22.49533        -35.61555   0.10941    62   %  0.6396
      63     -58.91023     23.29483        -35.61541   0.10956    63   %  0.6552
      64     -59.47172     23.85610        -35.61562   0.10934    64   %  0.6663
      65     -60.03249     24.41675        -35.61575   0.10921    65   %  0.6774
      66     -60.59248     24.97654        -35.61593   0.10903    66   %  0.6885
      67     -61.15165     25.53548        -35.61617   0.10879    67   %  0.6997
      68     -61.70476     26.08830        -35.61646   0.10850    68   %  0.7108
      69     -62.25232     26.63551        -35.61681   0.10815    69   %  0.7219
      70     -62.80301     27.18583        -35.61718   0.10778    70   %  0.7331
      71     -63.34572     27.72812        -35.61760   0.10736    71   %  0.7443
      72     -63.88692     28.26887        -35.61805   0.10691    72   %  0.7555
      73     -64.42699     28.80844        -35.61855   0.10641    73   %  0.7668
      74     -64.96397     29.34488        -35.61908   0.10588    74   %  0.7781
      75     -65.49657     29.87691        -35.61966   0.10530    75   %  0.7894
      76     -66.01663     30.39636        -35.62027   0.10469    76   %  0.8005
      77     -66.53880     30.91791        -35.62090   0.10407    77   %  0.8118
      78     -67.05781     31.43625        -35.62156   0.10340    78   %  0.8232
      79     -67.56597     31.94370        -35.62227   0.10269    79   %  0.8344
      80     -68.06961     32.44662        -35.62299   0.10197    80   %  0.8457
      81     -68.57397     32.95024        -35.62373   0.10123    81   %  0.8571
      82     -69.07040     33.44589        -35.62451   0.10045    82   %  0.8684
      83     -69.56437     33.93905        -35.62532   0.09965    83   %  0.8799
      84     -70.05021     34.42406        -35.62615   0.09881    84   %  0.8913
      85     -70.52794     34.90094        -35.62700   0.09796    85   %  0.9026
      86     -71.00269     35.37483        -35.62786   0.09710    86   %  0.9140
      87     -71.47127     35.84253        -35.62874   0.09622    87   %  0.9255
      88     -71.93532     36.30567        -35.62965   0.09531    88   %  0.9369
      89     -72.39919     36.76862        -35.63057   0.09439    89   %  0.9486
      90     -72.85721     37.22567        -35.63154   0.09342    90   %  0.9602
      91     -73.30860     37.67608        -35.63252   0.09244    91   %  0.9719
      92     -73.74880     38.11528        -35.63352   0.09144    92   %  0.9835
      93     -74.18340     38.54889        -35.63451   0.09045    93   %  0.9950
      94     -74.61366     38.97815        -35.63552   0.08944    94   %  1.0067
      95     -75.03642     39.39988        -35.63655   0.08842    95   %  1.0184
      96     -75.45544     39.81786        -35.63758   0.08738    96   %  1.0301
      97     -75.86900     40.23037        -35.63863   0.08633    97   %  1.0419
      98     -76.27244     40.63273        -35.63971   0.08525    98   %  1.0536
      99     -76.67054     41.02977        -35.64077   0.08419    99   %  1.0654
     100     -77.06443     41.42258        -35.64185   0.08311   100   %  1.0772
     101     -77.45141     41.80846        -35.64295   0.08201   101   %  1.0891
     102     -77.82762     42.18356        -35.64406   0.08090   102   %  1.1009
     103     -78.19921     42.55406        -35.64515   0.07981   103   %  1.1127
     104     -78.56122     42.91496        -35.64626   0.07870   104   %  1.1245
     105     -78.91811     43.27075        -35.64736   0.07760   105   %  1.1363
     106     -79.27115     43.62268        -35.64847   0.07649   106   %  1.1483
     107     -79.61795     43.96834        -35.64961   0.07536   107   %  1.1603
     108     -79.95485     44.30410        -35.65075   0.07421   108   %  1.1722
     109     -80.28708     44.63520        -35.65188   0.07308   109   %  1.1842
     110     -80.61007     44.95704        -35.65302   0.07194   110   %  1.1962
     111     -80.92787     45.27371        -35.65416   0.07080   111   %  1.2082
     112     -81.24181     45.58651        -35.65530   0.06966   112   %  1.2204
     113     -81.54383     45.88735        -35.65647   0.06849   113   %  1.2324
     114     -81.84289     46.18528        -35.65761   0.06735   114   %  1.2446
     115     -82.13111     46.47234        -35.65878   0.06619   115   %  1.2566
     116     -82.41654     46.75662        -35.65991   0.06505   116   %  1.2688
     117     -82.69094     47.02986        -35.66108   0.06388   117   %  1.2809
     118     -82.96182     47.29960        -35.66222   0.06274   118   %  1.2931
     119     -83.22692     47.56354        -35.66338   0.06158   119   %  1.3055
     120     -83.48334     47.81879        -35.66455   0.06041   120   %  1.3177
     121     -83.73011     48.06441        -35.66570   0.05926   121   %  1.3298
     122     -83.97382     48.30700        -35.66683   0.05813   122   %  1.3422
     123     -84.20752     48.53954        -35.66798   0.05698   123   %  1.3544
     124     -84.43763     48.76852        -35.66911   0.05586   124   %  1.3667
     125     -84.65786     48.98761        -35.67025   0.05471   125   %  1.3789
     126     -84.87475     49.20339        -35.67137   0.05359   126   %  1.3914
     127     -85.08256     49.41006        -35.67251   0.05246   127   %  1.4036
     128     -85.28322     49.60960        -35.67362   0.05134   128   %  1.4159
     129     -85.47908     49.80437        -35.67471   0.05025   129   %  1.4283
     130     -85.66733     49.99151        -35.67582   0.04914   130   %  1.4406
     131     -85.85080     50.17389        -35.67691   0.04805   131   %  1.4531
     132     -86.02721     50.34921        -35.67800   0.04696   132   %  1.4655
     133     -86.19600     50.51692        -35.67908   0.04588   133   %  1.4778
     134     -86.35855     50.67842        -35.68013   0.04483   134   %  1.4901
     135     -86.51681     50.83564        -35.68117   0.04379   135   %  1.5025
     136     -86.66852     50.98630        -35.68221   0.04275   136   %  1.5149
     137     -86.81321     51.12997        -35.68324   0.04172   137   %  1.5272
     138     -86.95236     51.26812        -35.68423   0.04073   138   %  1.5395
     139     -87.08794     51.40273        -35.68521   0.03975   139   %  1.5519
     140     -87.21812     51.53192        -35.68620   0.03876   140   %  1.5644
     141     -87.34231     51.65514        -35.68717   0.03779   141   %  1.5767
     142     -87.46159     51.77348        -35.68811   0.03685   142   %  1.5891
     143     -87.57547     51.88643        -35.68903   0.03593   143   %  1.6013
     144     -87.68519     51.99527        -35.68992   0.03504   144   %  1.6136
     145     -87.79033     52.09953        -35.69080   0.03416   145   %  1.6259
     146     -87.88992     52.19827        -35.69165   0.03331   146   %  1.6380
     147     -87.98571     52.29325        -35.69246   0.03250   147   %  1.6500
     148     -88.07834     52.38510        -35.69324   0.03172   148   %  1.6621
     149     -88.16744     52.47343        -35.69400   0.03096   149   %  1.6741
     150     -88.25404     52.55929        -35.69474   0.03022   150   %  1.6862
     151     -88.33780     52.64233        -35.69547   0.02949   151   %  1.6982
     152     -88.41798     52.72181        -35.69617   0.02879   152   %  1.7101
     153     -88.49591     52.79907        -35.69684   0.02812   153   %  1.7219
     154     -88.57054     52.87305        -35.69749   0.02747   154   %  1.7336
     155     -88.64314     52.94503        -35.69810   0.02686   155   %  1.7452
     156     -88.71409     53.01539        -35.69870   0.02626   156   %  1.7568
     157     -88.78289     53.08360        -35.69930   0.02566   157   %  1.7683
     158     -88.84984     53.14996        -35.69988   0.02508   158   %  1.7797
     159     -88.91413     53.21367        -35.70046   0.02450   159   %  1.7910
     160     -88.97709     53.27606        -35.70103   0.02393   160   %  1.8023
     161     -89.03771     53.33610        -35.70161   0.02335   161   %  1.8136
     162     -89.09594     53.39373        -35.70221   0.02275   162   %  1.8247
     163     -89.15092     53.44809        -35.70283   0.02213   163   %  1.8357
     164     -89.20366     53.50020        -35.70346   0.02150   164   %  1.8467
     165     -89.25322     53.54908        -35.70413   0.02083   165   %  1.8576
     166     -89.30022     53.59538        -35.70485   0.02011   166   %  1.8686
     167     -89.34371     53.63808        -35.70563   0.01933   167   %  1.8797
     168     -89.38351     53.67705        -35.70647   0.01849   168   %  1.8907
     169     -89.41928     53.71192        -35.70736   0.01760   169   %  1.9017
     170     -89.45060     53.74235        -35.70824   0.01672   170   %  1.9128
     171     -89.47704     53.76895        -35.70808   0.01688   171   %  1.9235
     172     -89.48701     53.79383        -35.69318   0.03178   172   %  1.9324
     173     -89.49610     53.83419        -35.66191   0.06305   173   %  1.9338
     174     -89.49694     53.88666        -35.61028   0.11468   174   %  1.9381
     175     -89.50530     53.93988        -35.56542   0.15954   175   %  1.9390
     176     -89.50512     53.99470        -35.51042   0.21454   176   %  1.9430
     177     -89.51271     54.04677        -35.46595   0.25901   177   %  1.9438
     178     -89.51147     54.10145        -35.41002   0.31494   178   %  1.9475
     179     -89.51853     54.15451        -35.36402   0.36094   179   %  1.9480
     180     -89.51694     54.20886        -35.30809   0.41687   180   %  1.9515
     181     -89.52317     54.26118        -35.26199   0.46297   181   %  1.9518
     182     -89.52112     54.31505        -35.20607   0.51889   182   %  1.9550
     183     -89.52684     54.36721        -35.15963   0.56533   183   %  1.9551
     184     -89.52439     54.42104        -35.10335   0.62161   184   %  1.9581
     185     -89.52986     54.47283        -35.05703   0.66793   185   %  1.9581
     186     -89.52646     54.52768        -34.99878   0.72618   186   %  1.9610
     187     -89.53255     54.57968        -34.95287   0.77209   187   %  1.9607
     188     -89.52842     54.63365        -34.89477   0.83019   188   %  1.9635
     189     -89.53442     54.68534        -34.84908   0.87588   189   %  1.9631
     190     -89.52975     54.73985        -34.78990   0.93506   190   %  1.9657
     191     -89.53586     54.79261        -34.74325   0.98171   191   %  1.9652
     192     -89.53127     54.84693        -34.68434   1.04062   192   %  1.9677
     193     -89.53727     54.89804        -34.63923   1.08573   193   %  1.9671
     194     -89.53169     54.95254        -34.57915   1.14581   194   %  1.9695
     195     -89.53823     55.00492        -34.53331   1.19166   195   %  1.9687
     196     -89.53259     55.05949        -34.47310   1.25186   196   %  1.9710
     197     -89.53923     55.11055        -34.42868   1.29628   197   %  1.9702
     198     -89.53270     55.16508        -34.36763   1.35734   198   %  1.9724
     199     -89.53989     55.21694        -34.32294   1.40202   199   %  1.9716
     200     -89.53322     55.27140        -34.26182   1.46314   200   %  1.9737
     201     -89.54050     55.32253        -34.21797   1.50699   201   %  1.9727
     202     -89.53293     55.37797        -34.15496   1.57000   202   %  1.9748
     203     -89.54105     55.43016        -34.11088   1.61408   203   %  1.9738
     204     -89.53285     55.48632        -34.04653   1.67843   204   %  1.9758
     205     -89.54145     55.53901        -34.00244   1.72252   205   %  1.9747
     206     -89.53333     55.59426        -33.93907   1.78589   206   %  1.9766
     207     -89.54172     55.64586        -33.89586   1.82910   207   %  1.9755
     208     -89.53325     55.70125        -33.83199   1.89297   208   %  1.9774
     209     -89.54208     55.75271        -33.78937   1.93559   209   %  1.9763
     210     -89.53284     55.80878        -33.72406   2.00090   210   %  1.9781
     211     -89.54249     55.86031        -33.68218   2.04278   211   %  1.9769
     212     -89.53255     55.91637        -33.61618   2.10878   212   %  1.9787
     213     -89.54285     55.96740        -33.57545   2.14951   213   %  1.9775
     214     -89.53191     56.02402        -33.50790   2.21706   214   %  1.9793
     215     -89.54310     56.07578        -33.46732   2.25764   215   %  1.9780
     216     -89.53131     56.13350        -33.39781   2.32715   216   %  1.9798
     217     -89.54348     56.18512        -33.35835   2.36661   217   %  1.9785
     218     -89.53124     56.24171        -33.28952   2.43544   218   %  1.9802
     219     -89.54342     56.29368        -33.24974   2.47522   219   %  1.9789
     220     -89.53132     56.35068        -33.18064   2.54432   220   %  1.9805
     221     -89.54355     56.40237        -33.14118   2.58378   221   %  1.9792
     222     -89.53088     56.46007        -33.07081   2.65415   222   %  1.9809
     223     -89.54377     56.51169        -33.03209   2.69287   223   %  1.9795
     224     -89.53040     56.56964        -32.96076   2.76420   224   %  1.9812
     225     -89.54397     56.62106        -32.92291   2.80206   225   %  1.9798
     226     -89.52965     56.67981        -32.84984   2.87512   226   %  1.9814
     227     -89.54414     56.73177        -32.81237   2.91259   227   %  1.9801
     228     -89.52905     56.79122        -32.73783   2.98713   228   %  1.9816
     229     -89.54435     56.84292        -32.70143   3.02353   229   %  1.9803
     230     -89.52860     56.90217        -32.62643   3.09853   230   %  1.9818
     231     -89.54446     56.95365        -32.59081   3.13415   231   %  1.9805
     232     -89.52733     57.01497        -32.51236   3.21260   232   %  1.9820
     233     -89.54460     57.06811        -32.47649   3.24847   233   %  1.9806
     234     -89.52731     57.12908        -32.39823   3.32673   234   %  1.9822
     235     -89.54465     57.18143        -32.36322   3.36174   235   %  1.9808
     236     -89.52697     57.24250        -32.28448   3.44049   236   %  1.9823
     237     -89.54473     57.29462        -32.25011   3.47485   237   %  1.9809
     238     -89.52615     57.35681        -32.16934   3.55562   238   %  1.9824
     239     -89.54483     57.40945        -32.13538   3.58958   239   %  1.9810
     240     -89.52564     57.47206        -32.05358   3.67138   240   %  1.9825
     241     -89.54483     57.52558        -32.01925   3.70571   241   %  1.9810
     242     -89.52526     57.58921        -31.93605   3.78891   242   %  1.9826
     243     -89.54487     57.64315        -31.90172   3.82324   243   %  1.9811
     244     -89.52464     57.70793        -31.81671   3.90825   244   %  1.9826
     245     -89.54496     57.76157        -31.78339   3.94158   245   %  1.9812
     246     -89.52438     57.82583        -31.69855   4.02641   246   %  1.9827
     247     -89.54499     57.87879        -31.66620   4.05876   247   %  1.9812
     248     -89.52251     57.94621        -31.57631   4.14866   248   %  1.9827
     249     -89.54506     58.00050        -31.54456   4.18040   249   %  1.9813
     250     -89.52084     58.07033        -31.45050   4.27446   250   %  1.9828
     251     -89.54505     58.12451        -31.42053   4.30443   251   %  1.9814
     252     -89.51932     58.19575        -31.32356   4.40140   252   %  1.9828
     253     -89.54498     58.25024        -31.29474   4.43022   253   %  1.9814
     254     -89.51832     58.32230        -31.19602   4.52894   254   %  1.9829
     255     -89.54493     58.37724        -31.16769   4.55727   255   %  1.9814
     256     -89.51661     58.45221        -31.06440   4.66056   256   %  1.9829
     257     -89.54482     58.50863        -31.03619   4.68877   257   %  1.9814
     258     -89.51504     58.58648        -30.92856   4.79640   258   %  1.9829
     259     -89.54466     58.64361        -30.90105   4.82391   259   %  1.9814
     260     -89.51264     58.72574        -30.78690   4.93806   260   %  1.9829
     261     -89.54430     58.78385        -30.76045   4.96451   261   %  1.9815
     262     -89.50991     58.87086        -30.63905   5.08591   262   %  1.9830
     263     -89.54388     58.93028        -30.61360   5.11136   263   %  1.9815
     264     -89.50799     59.02052        -30.48746   5.23750   264   %  1.9830
     265     -89.54339     59.07986        -30.46353   5.26143   265   %  1.9815
     266     -89.50538     59.17481        -30.33057   5.39439   266   %  1.9830
     267     -89.54288     59.23554        -30.30733   5.41763   267   %  1.9815
     268     -89.50277     59.33555        -30.16722   5.55774   268   %  1.9830
     269     -89.54210     59.39687        -30.14522   5.57974   269   %  1.9815
     270     -89.49851     59.50594        -29.99257   5.73239   270   %  1.9830
     271     -89.54114     59.57019        -29.97096   5.75401   271   %  1.9815
     272     -89.49425     59.68869        -29.80555   5.91941   272   %  1.9830
     273     -89.53976     59.75463        -29.78513   5.93983   273   %  1.9815
     274     -89.49130     59.88147        -29.60983   6.11513   274   %  1.9830
     275     -89.53874     59.94805        -29.59069   6.13427   275   %  1.9815
     276     -89.48555     60.08737        -29.39818   6.32678   276   %  1.9830
     277     -89.53647     60.15642        -29.38005   6.34491   277   %  1.9815
     278     -89.47793     60.31714        -29.16079   6.56418   278   %  1.9830
     279     -89.53345     60.38953        -29.14392   6.58104   279   %  1.9815
     280     -89.47336     60.56799        -28.90536   6.81960   280   %  1.9830
     281     -89.53164     60.64181        -28.88983   6.83513   281   %  1.9815
     282     -89.46989     60.83124        -28.63864   7.08632   282   %  1.9830
     283     -89.52993     60.90587        -28.62406   7.10090   283   %  1.9815
     284     -89.46350     61.11385        -28.34966   7.37530   284   %  1.9830
     285     -89.52708     61.19161        -28.33548   7.38948   285   %  1.9815
     286     -89.45292     61.43192        -28.02100   7.70396   286   %  1.9830
     287     -89.52142     61.51350        -28.00792   7.71704   287   %  1.9815


           POTENTIAL ENERGY HAS STOPPED DROPPING


 **********************
 *                    *
 * JOB ENDED NORMALLY *
 *                    *
 **********************



 TOTAL JOB TIME:             0.14 SECONDS

 == MOPAC DONE ==
