 *******************************************************************************
 ** Site#:  999         For non-commercial use only           Version 21.129  **
 *******************************************************************************
 ** Cite this program as: MOPAC2016, Version: 21.129 , James J. P. Stewart,   **
 ** Stewart Computational Chemistry, web-site: HTTP://OpenMOPAC.net.          **
 *******************************************************************************
 **                                                                           **
 **                                MOPAC2016                                  **
 **                                                                           **
 *******************************************************************************

                              PM7 CALCULATION RESULTS

 *******************************************************************************
 *  CALCULATION DONE:                                Sun Nov 20 12:22:50 2022  *
 *  PM7        - The PM7 Hamiltonian to be used
 *
 *
 *
 *                 CHARGE ON SYSTEM = 0
 *
 *
 *
 *  IRC=N      - INTRINSIC REACTION COORDINATE  1 DEFINED
 *  PRECISE    - TIGHTER CRITERIA TO BE USED
 *  THREADS=1  - MULTI-THREADING NOT USED
 *  T=         - A TIME OF 172800.0 SECONDS REQUESTED
 *  DUMP=N     - RESTART FILE WRITTEN EVERY 7200.0 SECONDS REQUESTED
 *  CYCLES=    - DO A MAXIMUM OF 5000 STEPS
 *  OLDENS     - INITIAL DENSITY MATRIX READ OFF DISK
 *******************************************************************************
   pm7 threads=1 charge=0 irc= 1 oldens precise cycles=5000
 title
 title
   ATOM   CHEMICAL          X               Y               Z
  NUMBER   SYMBOL      (ANGSTROMS)     (ANGSTROMS)     (ANGSTROMS)
 
     1       C         -0.48668901  *   0.67132621  *   1.44242234  *
     2       O         -0.98119152  *   0.82390546  *   2.47811898  *
     3       O          0.69316984  *   0.33179645  *   0.82995787  *
     4       H          1.77617438  *   0.61045794  *   0.82409672  *
     5       H          1.47313367  *  -0.46946770  *   0.84040658  *
 


          CARTESIAN COORDINATES 

    NO.       ATOM           X           Y           Z

     1         C         -0.4867      0.6713      1.4424
     2         O         -0.9812      0.8239      2.4781
     3         O          0.6932      0.3318      0.8300
     4         H          1.7762      0.6105      0.8241
     5         H          1.4731     -0.4695      0.8404

 General Reference for PM7:
 "Optimization of Parameters for Semiempirical Methods VI: More Modifications to the 
 NDDO Approximations and Re-optimization of Parameters", J. J. P. Stewart, J. Mol. Mod., 1:32, 19 (2013)
 https://link.springer.com/article/10.1007/s00894-012-1667-x

           Empirical Formula: C H2 O2  =     5 atoms



      MOLECULAR POINT GROUP   :   Cs  


      RHF CALCULATION, NO. OF DOUBLY OCCUPIED LEVELS = 9



          HEAT OF FORMATION =     -44.917740 KCALS/MOLE


          GRADIENT NORM =   0.04470

          MOLECULAR WEIGHT =   46.03


          ESTIMATED TIME TO COMPLETE CALCULATION =        0.00 SECONDS

    FOR POINT-GROUP Cs   THERE ARE   2 UNIQUE SYMMETRY FUNCTIONS.

 STEP:   1 TIME =     0.00 SECS, INTEGRAL =      0.00 TIME LEFT: 172800.00
 STEP:   2 TIME =     0.00 SECS, INTEGRAL =      0.00 TIME LEFT: 172800.00
 STEP:   3 TIME =     0.00 SECS, INTEGRAL =      0.00 TIME LEFT: 172800.00
 STEP:   4 TIME =     0.00 SECS, INTEGRAL =      0.01 TIME LEFT: 172799.99
 STEP:   5 TIME =     0.00 SECS, INTEGRAL =      0.01 TIME LEFT: 172799.99
 STEP:   6 TIME =     0.00 SECS, INTEGRAL =      0.01 TIME LEFT: 172799.99
 STEP:   7 TIME =     0.00 SECS, INTEGRAL =      0.02 TIME LEFT: 172799.98
 STEP:   8 TIME =     0.00 SECS, INTEGRAL =      0.02 TIME LEFT: 172799.98
 STEP:   9 TIME =     0.00 SECS, INTEGRAL =      0.02 TIME LEFT: 172799.98
 STEP:  10 TIME =     0.00 SECS, INTEGRAL =      0.02 TIME LEFT: 172799.98
 STEP:  11 TIME =     0.00 SECS, INTEGRAL =      0.02 TIME LEFT: 172799.98
 STEP:  12 TIME =     0.00 SECS, INTEGRAL =      0.02 TIME LEFT: 172799.98
 STEP:  13                       INTEGRAL =      0.02 TIME LEFT: 172799.98
 STEP:  14                       INTEGRAL =      0.02 TIME LEFT: 172799.98
 STEP:  15                       INTEGRAL =      0.02 TIME LEFT: 172799.98
  Stopping critera: r_ij>5*r_ij(0)
 
           INITIAL VELOCITY IN DRC (Angstroms/Femtosecond)
        -0.02581         0.04870         0.00003
        -0.00921        -0.00810        -0.00003
         0.04886        -0.06528         0.00003
        -0.16096         0.29213        -0.26440
        -0.16091         0.29221         0.26408
 
  Deltat    =   0.24 fs
  Maxcyc    =      5000
  Jloop_lim =      5000
 
  Initial distance matrix
  Bond#     i     j    Ini_value(A)
      1     1     2          1.158
      2     1     3          1.372
      3     1     4          2.347
      4     1     5          2.346
      5     2     3          2.400
      6     2     4          3.222
      7     2     5          3.222
      8     3     4          1.118
      9     3     5          1.118
     10     4     5          1.122
 
 


     POINT   POTENTIAL  +  ENERGY LOST   =   TOTAL      ERROR    REF%   MOVEMENT
       1     -44.91774      0.00000        -44.91774   0.00000     1   %  0.0000
       2     -44.91799      0.00000        -44.91799  -0.00025     2   %  0.0022
       3     -44.91876      0.00000        -44.91876  -0.00102     3   %  0.0044
       4     -44.93394      0.00000        -44.93394  -0.01620     4   %  0.0176
       5     -44.96782      0.00000        -44.96782  -0.03388     5   %  0.0308
       6     -45.02171      0.12289        -44.89882   0.03511     6   %  0.0441
       7     -45.08987      0.19593        -44.89394   0.03999     7   %  0.0570
       8     -45.18291      0.29087        -44.89204   0.04189     8   %  0.0703
       9     -45.29719      0.40684        -44.89035   0.04358     9   %  0.0837
      10     -45.43170      0.54351        -44.88819   0.04574    10   %  0.0969
      11     -45.58770      0.70182        -44.88588   0.04806    11   %  0.1102
      12     -45.76695      0.88356        -44.88340   0.05054    12   %  0.1235
      13     -45.96823      1.08751        -44.88071   0.05322    13   %  0.1369
      14     -46.18891      1.31102        -44.87789   0.05605    14   %  0.1500
      15     -46.43417      1.55912        -44.87505   0.05889    15   %  0.1633
      16     -46.70172      1.82968        -44.87205   0.06189    16   %  0.1766
      17     -46.99331      2.12433        -44.86898   0.06496    17   %  0.1900
      18     -47.30334      2.43755        -44.86580   0.06814    18   %  0.2031
      19     -47.63624      2.77359        -44.86265   0.07129    19   %  0.2163
      20     -47.99214      3.13269        -44.85945   0.07449    20   %  0.2296
      21     -48.37374      3.51754        -44.85620   0.07774    21   %  0.2429
      22     -48.77706      3.92419        -44.85287   0.08107    22   %  0.2563
      23     -49.20293      4.35340        -44.84953   0.08440    23   %  0.2697
      24     -49.64923      4.80304        -44.84618   0.08775    24   %  0.2830
      25     -50.11291      5.27005        -44.84287   0.09107    25   %  0.2963
      26     -50.60335      5.76373        -44.83962   0.09431    26   %  0.3097
      27     -51.10460      6.26828        -44.83633   0.09761    27   %  0.3229
      28     -51.63046      6.79728        -44.83319   0.10075    28   %  0.3362
      29     -52.17119      7.34115        -44.83004   0.10390    29   %  0.3494
      30     -52.73432      7.90733        -44.82699   0.10694    30   %  0.3627
      31     -53.31647      8.49251        -44.82397   0.10997    31   %  0.3761
      32     -53.91780      9.09679        -44.82101   0.11293    32   %  0.3895
      33     -54.53085      9.71272        -44.81812   0.11581    33   %  0.4029
      34     -55.16135     10.34598        -44.81538   0.11856    34   %  0.4163
      35     -55.81062     10.99790        -44.81272   0.12122    35   %  0.4297
      36     -56.47397     11.66383        -44.81014   0.12379    36   %  0.4432
      37     -57.14711     12.33941        -44.80770   0.12623    37   %  0.4566
      38     -57.83243     13.02701        -44.80542   0.12851    38   %  0.4701
      39     -58.52341     13.72012        -44.80329   0.13065    39   %  0.4834
      40     -59.22707     14.42575        -44.80132   0.13261    40   %  0.4968
      41     -59.94346     15.14397        -44.79949   0.13445    41   %  0.5102
      42     -60.66641     15.86861        -44.79780   0.13614    42   %  0.5236
      43     -61.39420     16.59792        -44.79628   0.13765    43   %  0.5369
      44     -62.13750     17.34258        -44.79491   0.13902    44   %  0.5504
      45     -62.88731     18.09363        -44.79367   0.14026    45   %  0.5639
      46     -63.63306     18.84047        -44.79260   0.14134    46   %  0.5773
      47     -64.38406     19.59236        -44.79170   0.14223    47   %  0.5906
      48     -65.14638     20.35544        -44.79094   0.14299    48   %  0.6041
      49     -65.90486     21.11454        -44.79032   0.14361    49   %  0.6175
      50     -66.67567     21.88582        -44.78985   0.14409    50   %  0.6310
      51     -67.43924     22.64973        -44.78951   0.14442    51   %  0.6444
      52     -68.20206     23.41273        -44.78932   0.14461    52   %  0.6577
      53     -68.96764     24.17838        -44.78926   0.14468    53   %  0.6711
      54     -69.72956     24.94025        -44.78932   0.14462    54   %  0.6845
      55     -70.50089     25.71140        -44.78949   0.14444    55   %  0.6980
      56     -71.26180     26.47200        -44.78979   0.14414    56   %  0.7114
      57     -72.02564     27.23544        -44.79020   0.14374    57   %  0.7249
      58     -72.78696     27.99624        -44.79072   0.14322    58   %  0.7383
      59     -73.54214     28.75080        -44.79134   0.14259    59   %  0.7518
      60     -74.29502     29.50296        -44.79206   0.14188    60   %  0.7653
      61     -75.03780     30.24492        -44.79287   0.14106    61   %  0.7787
      62     -75.78052     30.98675        -44.79376   0.14017    62   %  0.7921
      63     -76.52033     31.72559        -44.79475   0.13919    63   %  0.8057
      64     -77.24763     32.45181        -44.79582   0.13811    64   %  0.8191
      65     -77.97324     33.17629        -44.79695   0.13699    65   %  0.8326
      66     -78.67949     33.88132        -44.79817   0.13577    66   %  0.8459
      67     -79.38070     34.58130        -44.79940   0.13453    67   %  0.8593
      68     -80.07140     35.27069        -44.80071   0.13323    68   %  0.8726
      69     -80.75907     35.95701        -44.80206   0.13188    69   %  0.8860
      70     -81.43245     36.62897        -44.80348   0.13046    70   %  0.8993
      71     -82.09969     37.29477        -44.80492   0.12901    71   %  0.9126
      72     -82.75617     37.94975        -44.80642   0.12752    72   %  0.9260
      73     -83.40184     38.59389        -44.80794   0.12599    73   %  0.9393
      74     -84.04295     39.23346        -44.80950   0.12444    74   %  0.9527
      75     -84.67352     39.86242        -44.81111   0.12283    75   %  0.9660
      76     -85.29412     40.48139        -44.81274   0.12120    76   %  0.9794
      77     -85.90064     41.08625        -44.81439   0.11954    77   %  0.9927
      78     -86.50063     41.68459        -44.81604   0.11789    78   %  1.0061
      79     -87.09442     42.27669        -44.81773   0.11620    79   %  1.0196
      80     -87.67451     42.85506        -44.81946   0.11448    80   %  1.0330
      81     -88.24616     43.42499        -44.82117   0.11276    81   %  1.0465
      82     -88.80028     43.97737        -44.82290   0.11103    82   %  1.0598
      83     -89.34484     44.52025        -44.82459   0.10934    83   %  1.0732
      84     -89.87624     45.04996        -44.82629   0.10765    84   %  1.0864
      85     -90.40357     45.57561        -44.82796   0.10598    85   %  1.0999
      86     -90.91969     46.09001        -44.82967   0.10426    86   %  1.1133
      87     -91.41885     46.58749        -44.83136   0.10257    87   %  1.1265
      88     -91.91438     47.08138        -44.83299   0.10094    88   %  1.1399
      89     -92.39513     47.56046        -44.83466   0.09927    89   %  1.1532
      90     -92.86577     48.02949        -44.83627   0.09766    90   %  1.1664
      91     -93.32534     48.48764        -44.83769   0.09624    91   %  1.1796
      92     -93.77562     48.93645        -44.83917   0.09476    92   %  1.1929
      93     -94.21671     49.37609        -44.84062   0.09331    93   %  1.2061
      94     -94.64411     49.80205        -44.84205   0.09188    94   %  1.2192
      95     -95.06972     50.22629        -44.84343   0.09051    95   %  1.2325
      96     -95.48487     50.64004        -44.84483   0.08911    96   %  1.2457
      97     -95.88580     51.03961        -44.84619   0.08775    97   %  1.2587
      98     -96.27909     51.43161        -44.84748   0.08645    98   %  1.2718
      99     -96.66663     51.81787        -44.84876   0.08517    99   %  1.2849
     100     -97.04394     52.19392        -44.85002   0.08391   100   %  1.2980
     101     -97.41325     52.56200        -44.85124   0.08269   101   %  1.3110
     102     -97.77424     52.92181        -44.85243   0.08151   102   %  1.3239
     103     -98.13170     53.27812        -44.85358   0.08036   103   %  1.3370
     104     -98.48378     53.62905        -44.85473   0.07921   104   %  1.3502
     105     -98.82439     53.96854        -44.85586   0.07808   105   %  1.3631
     106     -99.16377     54.30685        -44.85693   0.07701   106   %  1.3763
     107     -99.49108     54.63308        -44.85800   0.07594   107   %  1.3892
     108     -99.81250     54.95349        -44.85901   0.07493   108   %  1.4021
     109    -100.13190     55.27190        -44.85999   0.07394   109   %  1.4152
     110    -100.44693     55.58595        -44.86097   0.07296   110   %  1.4283
     111    -100.75206     55.89012        -44.86193   0.07200   111   %  1.4412
     112    -101.05687     56.19403        -44.86284   0.07109   112   %  1.4543
     113    -101.35189     56.48814        -44.86375   0.07018   113   %  1.4672
     114    -101.64277     56.77816        -44.86461   0.06932   114   %  1.4801
     115    -101.93233     57.06688        -44.86545   0.06848   115   %  1.4932
     116    -102.21805     57.35176        -44.86629   0.06764   116   %  1.5063
     117    -102.49501     57.62790        -44.86711   0.06682   117   %  1.5192
     118    -102.77218     57.90430        -44.86789   0.06605   118   %  1.5323
     119    -103.04102     58.17236        -44.86866   0.06527   119   %  1.5453
     120    -103.30663     58.43723        -44.86940   0.06453   120   %  1.5582
     121    -103.57108     58.70096        -44.87012   0.06381   121   %  1.5713
     122    -103.83186     58.96102        -44.87084   0.06310   122   %  1.5844
     123    -104.08964     59.21810        -44.87154   0.06239   123   %  1.5975
     124    -104.34236     59.47013        -44.87223   0.06171   124   %  1.6106
     125    -104.59258     59.71969        -44.87290   0.06104   125   %  1.6237
     126    -104.83967     59.96612        -44.87355   0.06038   126   %  1.6368
     127    -105.08077     60.20658        -44.87419   0.05974   127   %  1.6498
     128    -105.31848     60.44367        -44.87481   0.05913   128   %  1.6628
     129    -105.55322     60.67781        -44.87541   0.05853   129   %  1.6757
     130    -105.78770     60.91170        -44.87600   0.05794   130   %  1.6889
     131    -106.01934     61.14275        -44.87659   0.05734   131   %  1.7021
     132    -106.24762     61.37044        -44.87718   0.05676   132   %  1.7152
     133    -106.47431     61.59656        -44.87775   0.05618   133   %  1.7285
     134    -106.69727     61.81895        -44.87832   0.05561   134   %  1.7417
     135    -106.91712     62.03824        -44.87888   0.05506   135   %  1.7549
     136    -107.13635     62.25693        -44.87943   0.05451   136   %  1.7682
     137    -107.35254     62.47256        -44.87998   0.05396   137   %  1.7816
     138    -107.56508     62.68456        -44.88052   0.05342   138   %  1.7949
     139    -107.77563     62.89458        -44.88105   0.05289   139   %  1.8083
     140    -107.98228     63.10070        -44.88158   0.05236   140   %  1.8216
     141    -108.18566     63.30357        -44.88209   0.05184   141   %  1.8349
     142    -108.38812     63.50552        -44.88260   0.05134   142   %  1.8483
     143    -108.58737     63.70426        -44.88311   0.05082   143   %  1.8617
     144    -108.78667     63.90306        -44.88361   0.05032   144   %  1.8753
     145    -108.97967     64.09554        -44.88412   0.04981   145   %  1.8886
     146    -109.17243     64.28782        -44.88461   0.04932   146   %  1.9022
     147    -109.36174     64.47663        -44.88511   0.04883   147   %  1.9157
     148    -109.54983     64.66423        -44.88560   0.04834   148   %  1.9293
     149    -109.73447     64.84838        -44.88609   0.04785   149   %  1.9429
     150    -109.91503     65.02846        -44.88657   0.04736   150   %  1.9564
     151    -110.09658     65.20954        -44.88704   0.04689   151   %  1.9702
     152    -110.27415     65.38662        -44.88753   0.04640   152   %  1.9840
     153    -110.44811     65.56010        -44.88801   0.04592   153   %  1.9976
     154    -110.62036     65.73188        -44.88848   0.04546   154   %  2.0114
     155    -110.78910     65.90015        -44.88895   0.04498   155   %  2.0251
     156    -110.95716     66.06775        -44.88942   0.04452   156   %  2.0390
     157    -111.12261     66.23272        -44.88989   0.04405   157   %  2.0529
     158    -111.28383     66.39347        -44.89036   0.04358   158   %  2.0667
     159    -111.44440     66.55358        -44.89082   0.04312   159   %  2.0808
     160    -111.60013     66.70884        -44.89128   0.04265   160   %  2.0946
     161    -111.75543     66.86370        -44.89174   0.04220   161   %  2.1087
     162    -111.90693     67.01473        -44.89220   0.04174   162   %  2.1227
     163    -112.05565     67.16300        -44.89265   0.04129   163   %  2.1367
     164    -112.20081     67.30773        -44.89308   0.04085   164   %  2.1506
     165    -112.34499     67.45155        -44.89344   0.04049   165   %  2.1647
     166    -112.48443     67.59091        -44.89352   0.04042   166   %  2.1788
     167    -112.61997     67.72789        -44.89207   0.04186   167   %  2.1925
     168    -112.74695     67.86343        -44.88352   0.05041   168   %  2.2065
     169    -112.85393     68.00629        -44.84763   0.08630   169   %  2.2175
     170    -112.93552     68.16892        -44.76660   0.16733   170   %  2.2286
     171    -113.00688     68.35392        -44.65296   0.28097   171   %  2.2345
     172    -113.07517     68.54778        -44.52740   0.40654   172   %  2.2440
     173    -113.14297     68.74263        -44.40034   0.53360   173   %  2.2498
     174    -113.20957     68.93908        -44.27049   0.66344   174   %  2.2593
     175    -113.27476     69.13050        -44.14425   0.78968   175   %  2.2649
     176    -113.33729     69.32670        -44.01058   0.92335   176   %  2.2743
     177    -113.40022     69.51945        -43.88076   1.05317   177   %  2.2797
     178    -113.45946     69.71260        -43.74686   1.18708   178   %  2.2888
     179    -113.51872     69.90798        -43.61074   1.32319   179   %  2.2941
     180    -113.57664     70.09970        -43.47694   1.45699   180   %  2.3030
     181    -113.63189     70.29130        -43.34059   1.59335   181   %  2.3081
     182    -113.68730     70.48474        -43.20256   1.73137   182   %  2.3170
     183    -113.74072     70.67526        -43.06546   1.86847   183   %  2.3219
     184    -113.79261     70.86715        -42.92546   2.00848   184   %  2.3306
     185    -113.84362     71.06058        -42.78304   2.15090   185   %  2.3354
     186    -113.89354     71.25528        -42.63826   2.29567   186   %  2.3439
     187    -113.94256     71.44487        -42.49769   2.43625   187   %  2.3484
     188    -113.98939     71.63413        -42.35526   2.57868   188   %  2.3568
     189    -114.03634     71.82168        -42.21466   2.71927   189   %  2.3613
     190    -114.08065     72.01402        -42.06663   2.86730   190   %  2.3696
     191    -114.12606     72.20570        -41.92036   3.01358   191   %  2.3739
     192    -114.16895     72.39418        -41.77477   3.15916   192   %  2.3819
     193    -114.21070     72.58416        -41.62654   3.30740   193   %  2.3861
     194    -114.25328     72.77087        -41.48241   3.45152   194   %  2.3940
     195    -114.29228     72.95789        -41.33439   3.59954   195   %  2.3981
     196    -114.33241     73.14835        -41.18405   3.74988   196   %  2.4060
     197    -114.37114     73.33641        -41.03473   3.89921   197   %  2.4099
     198    -114.40851     73.52471        -40.88380   4.05013   198   %  2.4176
     199    -114.44530     73.71363        -40.73168   4.20226   199   %  2.4215
     200    -114.48228     73.89895        -40.58333   4.35060   200   %  2.4289
     201    -114.51597     74.08611        -40.42986   4.50407   201   %  2.4327
     202    -114.55194     74.27343        -40.27852   4.65542   202   %  2.4402
     203    -114.58394     74.46335        -40.12059   4.81335   203   %  2.4438
     204    -114.61931     74.64913        -39.97018   4.96375   204   %  2.4510
     205    -114.64888     74.83634        -39.81254   5.12140   205   %  2.4546
     206    -114.68308     75.02177        -39.66131   5.27263   206   %  2.4618
     207    -114.71085     75.21119        -39.49966   5.43428   207   %  2.4653
     208    -114.74439     75.39806        -39.34633   5.58760   208   %  2.4723
     209    -114.77135     75.58310        -39.18825   5.74569   209   %  2.4756
     210    -114.80213     75.76786        -39.03427   5.89967   210   %  2.4826
     211    -114.82906     75.95152        -38.87754   6.05640   211   %  2.4858
     212    -114.85793     76.13411        -38.72382   6.21011   212   %  2.4927
     213    -114.88258     76.32198        -38.56060   6.37333   213   %  2.4958
     214    -114.91248     76.50560        -38.40688   6.52705   214   %  2.5025
     215    -114.93481     76.69060        -38.24422   6.68972   215   %  2.5056
     216    -114.96287     76.87685        -38.08602   6.84792   216   %  2.5123
     217    -114.98554     77.06370        -37.92184   7.01209   217   %  2.5152
     218    -115.01140     77.25139        -37.76001   7.17392   218   %  2.5218
     219    -115.03423     77.43733        -37.59690   7.33703   219   %  2.5246
     220    -115.05886     77.61999        -37.43887   7.49506   220   %  2.5311
     221    -115.07894     77.80726        -37.27167   7.66226   221   %  2.5339
     222    -115.10435     77.99304        -37.11131   7.82263   222   %  2.5402
     223    -115.12359     78.17826        -36.94534   7.98860   223   %  2.5429
     224    -115.14716     78.36270        -36.78446   8.14947   224   %  2.5492
     225    -115.16544     78.55012        -36.61532   8.31861   225   %  2.5518
     226    -115.18983     78.73176        -36.45808   8.47586   226   %  2.5579
     227    -115.20564     78.91517        -36.29047   8.64347   227   %  2.5605
     228    -115.22917     79.09784        -36.13133   8.80261   228   %  2.5666
     229    -115.24511     79.28126        -35.96385   8.97009   229   %  2.5691
     230    -115.26647     79.46586        -35.80061   9.13333   230   %  2.5752
     231    -115.28256     79.65210        -35.63046   9.30348   231   %  2.5775
     232    -115.30358     79.83525        -35.46834   9.46560   232   %  2.5835
     233    -115.31776     80.02115        -35.29661   9.63733   233   %  2.5858
     234    -115.33832     80.20730        -35.13102   9.80291   234   %  2.5917
     235    -115.35362     80.39020        -34.96342   9.97052   235   %  2.5939
     236    -115.37162     80.57217        -34.79946  10.13448   236   %  2.5997
     237    -115.38611     80.75626        -34.62985  10.30408   237   %  2.6018
     238    -115.40466     80.93785        -34.46681  10.46712   238   %  2.6076
     239    -115.41694     81.12297        -34.29398  10.63996   239   %  2.6097
     240    -115.43574     81.30742        -34.12832  10.80562   240   %  2.6153
     241    -115.44760     81.49308        -33.95452  10.97941   241   %  2.6173
     242    -115.46644     81.67394        -33.79250  11.14143   242   %  2.6229
     243    -115.47563     81.85979        -33.61584  11.31809   243   %  2.6249
     244    -115.49580     82.04191        -33.45389  11.48004   244   %  2.6303
     245    -115.50415     82.22533        -33.27882  11.65512   245   %  2.6323
     246    -115.52241     82.40936        -33.11305  11.82088   246   %  2.6378
     247    -115.53209     82.59375        -32.93835  11.99559   247   %  2.6396
     248    -115.54809     82.77920        -32.76889  12.16505   248   %  2.6450
     249    -115.55837     82.96574        -32.59263  12.34130   249   %  2.6468
     250    -115.57403     83.14976        -32.42428  12.50966   250   %  2.6521
     251    -115.58425     83.33131        -32.25294  12.68100   251   %  2.6538
     252    -115.59847     83.51125        -32.08722  12.84671   252   %  2.6591
     253    -115.60717     83.69571        -31.91146  13.02248   253   %  2.6607
     254    -115.62291     83.87750        -31.74542  13.18852   254   %  2.6659
     255    -115.62985     84.06208        -31.56777  13.36616   255   %  2.6675
     256    -115.64610     84.24343        -31.40268  13.53126   256   %  2.6727
     257    -115.65222     84.42636        -31.22586  13.70808   257   %  2.6742
     258    -115.66801     84.60708        -31.06093  13.87300   258   %  2.6793
     259    -115.67340     84.79100        -30.88240  14.05153   259   %  2.6808
     260    -115.68910     84.97326        -30.71584  14.21809   260   %  2.6858
     261    -115.69452     85.15657        -30.53795  14.39599   261   %  2.6873
     262    -115.70997     85.33557        -30.37440  14.55954   262   %  2.6922
     263    -115.71465     85.51549        -30.19916  14.73478   263   %  2.6937
     264    -115.72891     85.69521        -30.03370  14.90024   264   %  2.6986
     265    -115.73480     85.87461        -29.86019  15.07374   265   %  2.7000
     266    -115.74675     86.05559        -29.69117  15.24277   266   %  2.7049
     267    -115.75306     86.23940        -29.51366  15.42027   267   %  2.7061
     268    -115.76527     86.42188        -29.34339  15.59054   268   %  2.7110
     269    -115.77041     86.60695        -29.16346  15.77047   269   %  2.7122
     270    -115.78297     86.79060        -28.99237  15.94157   270   %  2.7170
     271    -115.78787     86.97497        -28.81290  16.12103   271   %  2.7182
     272    -115.80029     87.15641        -28.64388  16.29005   272   %  2.7229
     273    -115.80455     87.33870        -28.46584  16.46809   273   %  2.7241
     274    -115.81618     87.52094        -28.29524  16.63869   274   %  2.7288
     275    -115.82196     87.70059        -28.12137  16.81256   275   %  2.7299
     276    -115.83088     87.88195        -27.94893  16.98501   276   %  2.7346
     277    -115.83849     88.06089        -27.77760  17.15633   277   %  2.7356
     278    -115.84434     88.24510        -27.59924  17.33470   278   %  2.7403
     279    -115.85480     88.42541        -27.42939  17.50455   279   %  2.7412
     280    -115.85834     88.60870        -27.24964  17.68429   280   %  2.7459
     281    -115.86950     88.78935        -27.08015  17.85378   281   %  2.7467
     282    -115.87222     88.97295        -26.89927  18.03466   282   %  2.7513
     283    -115.88356     89.15423        -26.72933  18.20461   283   %  2.7522
     284    -115.88615     89.33708        -26.54907  18.38487   284   %  2.7567
     285    -115.89731     89.51650        -26.38082  18.55312   285   %  2.7575
     286    -115.89932     89.69805        -26.20127  18.73266   286   %  2.7620
     287    -115.90994     89.87868        -26.03126  18.90267   287   %  2.7628
     288    -115.91177     90.06311        -25.84866  19.08528   288   %  2.7673
     289    -115.92288     90.24476        -25.67812  19.25582   289   %  2.7680
     290    -115.92515     90.42549        -25.49966  19.43427   290   %  2.7724
     291    -115.93374     90.60744        -25.32630  19.60763   291   %  2.7731
     292    -115.93764     90.79042        -25.14722  19.78672   292   %  2.7775
     293    -115.94586     90.97111        -24.97475  19.95919   293   %  2.7782
     294    -115.94812     91.15622        -24.79190  20.14204   294   %  2.7825
     295    -115.95839     91.33693        -24.62146  20.31248   295   %  2.7832
     296    -115.95824     91.52253        -24.43571  20.49823   296   %  2.7875
     297    -115.96925     91.70691        -24.26234  20.67159   297   %  2.7881
     298    -115.97125     91.88790        -24.08335  20.85059   298   %  2.7923
     299    -115.97977     92.06549        -23.91428  21.01965   299   %  2.7929
     300    -115.98033     92.24870        -23.73163  21.20231   300   %  2.7972
     301    -115.98982     92.43254        -23.55728  21.37666   301   %  2.7977
     302    -115.99158     92.61628        -23.37530  21.55863   302   %  2.8019
     303    -116.00013     92.79642        -23.20371  21.73023   303   %  2.8024
     304    -116.00137     92.97801        -23.02336  21.91058   304   %  2.8065
     305    -116.00870     93.16166        -22.84704  22.08689   305   %  2.8070
     306    -116.01229     93.34396        -22.66833  22.26560   306   %  2.8111
     307    -116.01781     93.52556        -22.49225  22.44169   307   %  2.8116
     308    -116.02163     93.70764        -22.31399  22.61994   308   %  2.8156
     309    -116.02623     93.89153        -22.13470  22.79924   309   %  2.8161
     310    -116.03252     94.07067        -21.96185  22.97208   310   %  2.8200
     311    -116.03458     94.25010        -21.78448  23.14945   311   %  2.8205
     312    -116.04025     94.43210        -21.60815  23.32578   312   %  2.8245
     313    -116.04350     94.61487        -21.42863  23.50531   313   %  2.8249
     314    -116.04998     94.79380        -21.25619  23.67775   314   %  2.8288
     315    -116.05145     94.97320        -21.07824  23.85569   315   %  2.8293
     316    -116.05702     95.15569        -20.90133  24.03260   316   %  2.8332
     317    -116.06011     95.33843        -20.72169  24.21225   317   %  2.8336
     318    -116.06450     95.52281        -20.54170  24.39224   318   %  2.8375
     319    -116.06884     95.70486        -20.36398  24.56996   319   %  2.8378
     320    -116.07281     95.88506        -20.18774  24.74619   320   %  2.8416
     321    -116.07648     96.06422        -20.01226  24.92168   321   %  2.8420
     322    -116.07923     96.24705        -19.83218  25.10176   322   %  2.8458
     323    -116.08489     96.42747        -19.65743  25.27651   323   %  2.8461
     324    -116.08584     96.61068        -19.47515  25.45878   324   %  2.8499
     325    -116.09231     96.79244        -19.29988  25.63406   325   %  2.8502
     326    -116.09299     96.97566        -19.11733  25.81661   326   %  2.8540
     327    -116.09974     97.15612        -18.94362  25.99032   327   %  2.8542
     328    -116.10005     97.33741        -18.76264  26.17130   328   %  2.8579
     329    -116.10630     97.51781        -18.58848  26.34545   329   %  2.8581
     330    -116.10622     97.70172        -18.40449  26.52944   330   %  2.8619
     331    -116.11287     97.88507        -18.22780  26.70613   331   %  2.8620
     332    -116.11361     98.06786        -18.04575  26.88819   332   %  2.8657
     333    -116.11838     98.25160        -17.86678  27.06716   333   %  2.8659
     334    -116.12128     98.43307        -17.68821  27.24573   334   %  2.8695
     335    -116.12519     98.61143        -17.51376  27.42018   335   %  2.8697
     336    -116.12738     98.78987        -17.33751  27.59642   336   %  2.8733
     337    -116.12983     98.97231        -17.15753  27.77641   337   %  2.8734
     338    -116.13448     99.15332        -16.98116  27.95277   338   %  2.8770
     339    -116.13556     99.33485        -16.80070  28.13323   339   %  2.8772
     340    -116.14089     99.51427        -16.62662  28.30732   340   %  2.8807
     341    -116.14103     99.69489        -16.44613  28.48780   341   %  2.8808
     342    -116.14612     99.87663        -16.26950  28.66444   342   %  2.8844
     343    -116.14631    100.06090        -16.08541  28.84853   343   %  2.8845
     344    -116.15238    100.24307        -15.90932  29.02462   344   %  2.8880
     345    -116.15098    100.42820        -15.72278  29.21116   345   %  2.8881
     346    -116.15946    100.60745        -15.55201  29.38193   346   %  2.8915
     347    -116.15499    100.79117        -15.36383  29.57011   347   %  2.8916
     348    -116.16556    100.97069        -15.19487  29.73906   348   %  2.8950
     349    -116.16012    101.15288        -15.00724  29.92670   349   %  2.8951
     350    -116.17091    101.33168        -14.83923  30.09470   350   %  2.8985
     351    -116.16486    101.51440        -14.65046  30.28347   351   %  2.8986
     352    -116.17579    101.69519        -14.48060  30.45334   352   %  2.9020
     353    -116.16997    101.87902        -14.29095  30.64298   353   %  2.9020
     354    -116.18128    102.05819        -14.12309  30.81084   354   %  2.9054
     355    -116.17545    102.23808        -13.93738  30.99656   355   %  2.9054
     356    -116.18573    102.41556        -13.77018  31.16376   356   %  2.9087
     357    -116.17884    102.60009        -13.57875  31.35519   357   %  2.9088
     358    -116.19183    102.77833        -13.41350  31.52044   358   %  2.9120
     359    -116.18360    102.95889        -13.22471  31.70922   359   %  2.9121
     360    -116.19636    103.13525        -13.06111  31.87282   360   %  2.9153
     361    -116.18644    103.32023        -12.86621  32.06772   361   %  2.9154
     362    -116.20207    103.49843        -12.70364  32.23029   362   %  2.9186
     363    -116.19085    103.68064        -12.51020  32.42373   363   %  2.9186
     364    -116.20662    103.85697        -12.34965  32.58429   364   %  2.9218
     365    -116.19392    104.04158        -12.15235  32.78159   365   %  2.9218
     366    -116.21208    104.21784        -11.99424  32.93970   366   %  2.9250
     367    -116.19744    104.40096        -11.79648  33.13745   367   %  2.9250
     368    -116.21599    104.57916        -11.63683  33.29710   368   %  2.9282
     369    -116.20299    104.76012        -11.44287  33.49107   369   %  2.9281
     370    -116.21922    104.93773        -11.28149  33.65245   370   %  2.9313
     371    -116.20591    105.12435        -11.08156  33.85238   371   %  2.9313
     372    -116.22474    105.30154        -10.92320  34.01073   372   %  2.9344
     373    -116.20793    105.48867        -10.71926  34.21468   373   %  2.9343
     374    -116.22955    105.66662        -10.56294  34.37100   374   %  2.9374
     375    -116.21199    105.85076        -10.36123  34.57270   375   %  2.9374
     376    -116.23350    106.02677        -10.20673  34.72720   376   %  2.9405
     377    -116.21471    106.21281        -10.00189  34.93204   377   %  2.9404
     378    -116.23687    106.39376         -9.84312  35.09082   378   %  2.9435
     379    -116.21879    106.58203         -9.63676  35.29718   379   %  2.9434
     380    -116.24161    106.75890         -9.48271  35.45122   380   %  2.9464
     381    -116.22132    106.94515         -9.27617  35.65777   381   %  2.9464
     382    -116.24552    107.12235         -9.12317  35.81077   382   %  2.9494
     383    -116.22416    107.30975         -8.91441  36.01953   383   %  2.9493
     384    -116.24919    107.48862         -8.76057  36.17337   384   %  2.9523
     385    -116.22813    107.67497         -8.55316  36.38077   385   %  2.9522
     386    -116.25294    107.85120         -8.40173  36.53220   386   %  2.9552
     387    -116.23142    108.03601         -8.19541  36.73852   387   %  2.9551
     388    -116.25581    108.21415         -8.04166  36.89228   388   %  2.9581
     389    -116.23654    108.39688         -7.83965  37.09428   389   %  2.9580
     390    -116.25837    108.57356         -7.68481  37.24912   390   %  2.9609
     391    -116.23872    108.76116         -7.47757  37.45637   391   %  2.9608
     392    -116.26287    108.93749         -7.32538  37.60855   392   %  2.9637
     393    -116.23949    109.12724         -7.11225  37.82168   393   %  2.9635
     394    -116.26689    109.30571         -6.96119  37.97275   394   %  2.9664
     395    -116.24340    109.49136         -6.75204  38.18189   395   %  2.9663
     396    -116.26889    109.67102         -6.59786  38.33607   396   %  2.9692
     397    -116.24636    109.86131         -6.38505  38.54888   397   %  2.9691
     398    -116.27252    110.04132         -6.23120  38.70274   398   %  2.9719
     399    -116.24933    110.22999         -6.01934  38.91459   399   %  2.9718
     400    -116.27529    110.41001         -5.86528  39.06866   400   %  2.9747
     401    -116.25386    110.59543         -5.65843  39.27551   401   %  2.9745
     402    -116.27702    110.77586         -5.50115  39.43278   402   %  2.9774
     403    -116.25763    110.96327         -5.29436  39.63957   403   %  2.9771
     404    -116.28037    111.14117         -5.13921  39.79473   404   %  2.9800
     405    -116.25941    111.32895         -4.93046  40.00347   405   %  2.9797
     406    -116.28392    111.50629         -4.77762  40.15631   406   %  2.9826
     407    -116.26279    111.69000         -4.57279  40.36114   407   %  2.9823
     408    -116.28656    111.86495         -4.42161  40.51233   408   %  2.9852
     409    -116.26385    112.05257         -4.21128  40.72265   409   %  2.9849
     410    -116.29028    112.22889         -4.06139  40.87254   410   %  2.9877
     411    -116.26636    112.41412         -3.85224  41.08170   411   %  2.9875
     412    -116.29290    112.58964         -3.70327  41.23067   412   %  2.9902
     413    -116.26739    112.77875         -3.48864  41.44530   413   %  2.9900
     414    -116.29539    112.95995         -3.33544  41.59850   414   %  2.9928
     415    -116.27126    113.14833         -3.12294  41.81100   415   %  2.9925
     416    -116.29759    113.32777         -2.96982  41.96412   416   %  2.9953
     417    -116.27579    113.51164         -2.76415  42.16978   417   %  2.9950
     418    -116.29999    113.68591         -2.61407  42.31986   418   %  2.9978
     419    -116.27712    113.87151         -2.40561  42.52833   419   %  2.9975
     420    -116.30301    114.04711         -2.25590  42.67804   420   %  3.0002
     421    -116.27819    114.23495         -2.04325  42.89069   421   %  2.9999
     422    -116.30550    114.41378         -1.89172  43.04221   422   %  3.0026
     423    -116.28090    114.60173         -1.67917  43.25476   423   %  3.0023
     424    -116.30841    114.77767         -1.53074  43.40319   424   %  3.0050
     425    -116.28078    114.96902         -1.31176  43.62217   425   %  3.0047
     426    -116.31134    115.14897         -1.16237  43.77156   426   %  3.0074
     427    -116.28468    115.33574         -0.94894  43.98500   427   %  3.0071
     428    -116.31292    115.51341         -0.79952  44.13442   428   %  3.0098
     429    -116.28707    115.70164         -0.58543  44.34851   429   %  3.0094
     430    -116.31507    115.88075         -0.43431  44.49962   430   %  3.0121
     431    -116.29038    116.06736         -0.22302  44.71092   431   %  3.0118
     432    -116.31759    116.24226         -0.07533  44.85860   432   %  3.0144
     433    -116.29237    116.42690          0.13453  45.06846   433   %  3.0141
     434    -116.31900    116.60484          0.28584  45.21978   434   %  3.0168
     435    -116.29593    116.78979          0.49387  45.42780   435   %  3.0164
     436    -116.32068    116.96707          0.64639  45.58033   436   %  3.0191
     437    -116.29807    117.15334          0.85527  45.78920   437   %  3.0187
     438    -116.32268    117.33158          1.00890  45.94284   438   %  3.0213
     439    -116.30064    117.51736          1.21672  46.15066   439   %  3.0209
     440    -116.32497    117.69347          1.36850  46.30244   440   %  3.0235
     441    -116.30275    117.87762          1.57487  46.50880   441   %  3.0231
     442    -116.32658    118.05471          1.72813  46.66207   442   %  3.0258
     443    -116.30377    118.24325          1.93948  46.87341   443   %  3.0253
     444    -116.32887    118.42321          2.09434  47.02828   444   %  3.0280
     445    -116.30476    118.61437          2.30961  47.24354   445   %  3.0275
     446    -116.33109    118.79603          2.46494  47.39887   446   %  3.0301
     447    -116.30736    118.98520          2.67785  47.61178   447   %  3.0297
     448    -116.33326    119.16368          2.83042  47.76435   448   %  3.0323
     449    -116.30871    119.35239          3.04368  47.97761   449   %  3.0318
     450    -116.33596    119.52881          3.19285  48.12679   450   %  3.0344
     451    -116.30849    119.71944          3.41095  48.34488   451   %  3.0339
     452    -116.33860    119.89762          3.55902  48.49295   452   %  3.0365
     453    -116.30844    120.09088          3.78244  48.71638   453   %  3.0360
     454    -116.34174    120.26791          3.92617  48.86011   454   %  3.0386
     455    -116.30927    120.45843          4.14916  49.08310   455   %  3.0382
     456    -116.34300    120.63858          4.29558  49.22951   456   %  3.0407
     457    -116.31149    120.83118          4.51970  49.45363   457   %  3.0403
     458    -116.34555    121.00831          4.66276  49.59669   458   %  3.0428
     459    -116.31256    121.19888          4.88632  49.82025   459   %  3.0423
     460    -116.34774    121.37440          5.02665  49.96059   460   %  3.0448
     461    -116.31365    121.56437          5.25072  50.18466   461   %  3.0444
     462    -116.34925    121.74227          5.39302  50.32695   462   %  3.0469
     463    -116.31461    121.93587          5.62126  50.55519   463   %  3.0465
     464    -116.35140    122.11472          5.76332  50.69726   464   %  3.0489
     465    -116.31509    122.30999          5.99490  50.92883   465   %  3.0485
     466    -116.35409    122.48650          6.13241  51.06634   466   %  3.0509
     467    -116.31519    122.68068          6.36548  51.29942   467   %  3.0505
     468    -116.35622    122.85719          6.50097  51.43491   468   %  3.0529
     469    -116.31643    123.05035          6.73392  51.66786   469   %  3.0525
     470    -116.35781    123.22763          6.86982  51.80376   470   %  3.0550
     471    -116.31725    123.42318          7.10594  52.03987   471   %  3.0545
     472    -116.35959    123.60230          7.24272  52.17665   472   %  3.0570
     473    -116.32010    123.79501          7.47491  52.40885   473   %  3.0565
     474    -116.36031    123.97505          7.61474  52.54868   474   %  3.0590
     475    -116.32205    124.17092          7.84887  52.78281   475   %  3.0585
     476    -116.36234    124.34982          7.98748  52.92141   476   %  3.0609
     477    -116.32326    124.54453          8.22128  53.15521   477   %  3.0604
     478    -116.36353    124.72514          8.36161  53.29555   478   %  3.0629
     479    -116.32635    124.91819          8.59184  53.52578   479   %  3.0624
     480    -116.36439    125.09882          8.73443  53.66837   480   %  3.0648
     481    -116.33000    125.28957          8.95957  53.89350   481   %  3.0643
     482    -116.36497    125.46985          9.10488  54.03882   482   %  3.0668
     483    -116.33313    125.66022          9.32708  54.26102   483   %  3.0662
     484    -116.36673    125.83625          9.46952  54.40345   484   %  3.0686
     485    -116.33253    126.02925          9.69672  54.63066   485   %  3.0681
     486    -116.36860    126.20842          9.83982  54.77376   486   %  3.0705
     487    -116.33529    126.39773         10.06244  54.99637   487   %  3.0700
     488    -116.36924    126.57623         10.20699  55.14092   488   %  3.0724
     489    -116.33699    126.76759         10.43060  55.36453   489   %  3.0718
     490    -116.37084    126.94605         10.57521  55.50914   490   %  3.0742
     491    -116.33698    127.14028         10.80330  55.73724   491   %  3.0737
     492    -116.37325    127.31759         10.94435  55.87828   492   %  3.0760
     493    -116.33735    127.50993         11.17258  56.10652   493   %  3.0755
     494    -116.37415    127.69035         11.31621  56.25014   494   %  3.0779
     495    -116.33959    127.88337         11.54377  56.47771   495   %  3.0773
     496    -116.37617    128.05947         11.68330  56.61723   496   %  3.0796
     497    -116.33964    128.25161         11.91197  56.84590   497   %  3.0791
     498    -116.37775    128.42849         12.05073  56.98467   498   %  3.0814
     499    -116.34047    128.62102         12.28055  57.21448   499   %  3.0809
     500    -116.37919    128.79845         12.41926  57.35320   500   %  3.0832
     501    -116.34202    128.99009         12.64807  57.58201   501   %  3.0827
     502    -116.38053    129.16653         12.78600  57.71994   502   %  3.0850
     503    -116.34295    129.35859         13.01564  57.94958   503   %  3.0844
     504    -116.38169    129.53662         13.15493  58.08887   504   %  3.0868
     505    -116.34415    129.72994         13.38579  58.31973   505   %  3.0862
     506    -116.38321    129.90732         13.52410  58.45804   506   %  3.0885
     507    -116.34641    130.09702         13.75061  58.68455   507   %  3.0879
     508    -116.38428    130.27190         13.88762  58.82155   508   %  3.0902
     509    -116.34577    130.46592         14.12015  59.05409   509   %  3.0896
     510    -116.38635    130.64217         14.25583  59.18976   510   %  3.0919
     511    -116.34718    130.83290         14.48572  59.41965   511   %  3.0914
     512    -116.38744    131.00755         14.62011  59.55404   512   %  3.0936
     513    -116.34572    131.20431         14.85860  59.79253   513   %  3.0930
     514    -116.38953    131.38188         14.99235  59.92628   514   %  3.0953
     515    -116.34422    131.58213         15.23791  60.17185   515   %  3.0947
     516    -116.39161    131.75977         15.36816  60.30209   516   %  3.0970
     517    -116.34354    131.95998         15.61643  60.55037   517   %  3.0964
     518    -116.39334    132.13695         15.74361  60.67754   518   %  3.0987
     519    -116.34504    132.33326         15.98823  60.92216   519   %  3.0981
     520    -116.39429    132.50953         16.11524  61.04917   520   %  3.1004
     521    -116.34322    132.71321         16.36998  61.30392   521   %  3.0998
     522    -116.39631    132.89213         16.49582  61.42975   522   %  3.1020
     523    -116.34271    133.09623         16.75352  61.68746   523   %  3.1015
     524    -116.39736    133.27771         16.88035  61.81429   524   %  3.1037
     525    -116.34519    133.47973         17.13455  62.06848   525   %  3.1031
     526    -116.39874    133.65661         17.25787  62.19181   526   %  3.1053
     527    -116.34301    133.86331         17.52030  62.45424   527   %  3.1048
     528    -116.40014    134.04553         17.64539  62.57933   528   %  3.1070
     529    -116.34633    134.24734         17.90101  62.83495   529   %  3.1065
     530    -116.40086    134.42637         18.02551  62.95945   530   %  3.1087
     531    -116.34737    134.62940         18.28204  63.21597   531   %  3.1081
     532    -116.40188    134.81040         18.40852  63.34246   532   %  3.1103
     533    -116.34991    135.01146         18.66155  63.59549   533   %  3.1097
     534    -116.40311    135.18790         18.78479  63.71872   534   %  3.1119
     535    -116.35095    135.38681         19.03586  63.96980   535   %  3.1114
     536    -116.40374    135.56572         19.16197  64.09591   536   %  3.1136
     537    -116.35339    135.76448         19.41109  64.34502   537   %  3.1130
     538    -116.40446    135.94362         19.53917  64.47310   538   %  3.1152
     539    -116.35432    136.14468         19.79036  64.72430   539   %  3.1146
     540    -116.40560    136.32424         19.91863  64.85257   540   %  3.1168
     541    -116.35704    136.52117         20.16413  65.09807   541   %  3.1162
     542    -116.40575    136.70141         20.29566  65.22959   542   %  3.1184
     543    -116.35735    136.90435         20.54700  65.48093   543   %  3.1177
     544    -116.40721    137.08618         20.67898  65.61291   544   %  3.1199
     545    -116.35970    137.28477         20.92506  65.85900   545   %  3.1193
     546    -116.40808    137.46240         21.05433  65.98826   546   %  3.1215
     547    -116.36142    137.65831         21.29690  66.23083   547   %  3.1208
     548    -116.40874    137.83621         21.42748  66.36141   548   %  3.1230
     549    -116.36120    138.03648         21.67528  66.60921   549   %  3.1223
     550    -116.40989    138.21726         21.80737  66.74130   550   %  3.1245
     551    -116.36089    138.42059         22.05970  66.99364   551   %  3.1238
     552    -116.41103    138.60313         22.19210  67.12604   552   %  3.1260
     553    -116.36271    138.80409         22.44138  67.37532   553   %  3.1254
     554    -116.41203    138.98350         22.57146  67.50540   554   %  3.1275
     555    -116.36265    139.18528         22.82263  67.75657   555   %  3.1269
     556    -116.41347    139.36367         22.95020  67.88413   556   %  3.1290
     557    -116.36168    139.56685         23.20517  68.13910   557   %  3.1283
     558    -116.41490    139.74513         23.33023  68.26416   558   %  3.1305
     559    -116.35981    139.95160         23.59178  68.52572   559   %  3.1298
     560    -116.41636    140.13139         23.71503  68.64896   560   %  3.1319
     561    -116.35883    140.33925         23.98042  68.91435   561   %  3.1313
     562    -116.41722    140.52257         24.10536  69.03929   562   %  3.1334
     563    -116.36266    140.72502         24.36235  69.29629   563   %  3.1328
     564    -116.41769    140.90462         24.48693  69.42086   564   %  3.1349
     565    -116.36434    141.10661         24.74227  69.67620   565   %  3.1343
     566    -116.41845    141.28639         24.86794  69.80188   566   %  3.1364
     567    -116.36592    141.48779         25.12188  70.05581   567   %  3.1357
     568    -116.41938    141.66576         25.24639  70.18032   568   %  3.1378
     569    -116.36702    141.86584         25.49882  70.43276   569   %  3.1372
     570    -116.42006    142.04419         25.62412  70.55806   570   %  3.1393
     571    -116.36660    142.24809         25.88149  70.81543   571   %  3.1386
     572    -116.42106    142.42928         26.00822  70.94216   572   %  3.1407
     573    -116.36561    142.63754         26.27193  71.20586   573   %  3.1400
     574    -116.42208    142.82170         26.39962  71.33356   574   %  3.1421
     575    -116.36796    143.02648         26.65851  71.59245   575   %  3.1415
     576    -116.42302    143.20551         26.78249  71.71643   576   %  3.1436
     577    -116.36749    143.41089         27.04340  71.97734   577   %  3.1429
     578    -116.42410    143.59063         27.16653  72.10046   578   %  3.1450
     579    -116.36542    143.80098         27.43557  72.36950   579   %  3.1442
     580    -116.42554    143.98186         27.55632  72.49026   580   %  3.1463
     581    -116.36606    144.18909         27.82303  72.75697   581   %  3.1457
     582    -116.42617    144.36975         27.94358  72.87751   582   %  3.1477
     583    -116.36699    144.57723         28.21024  73.14418   583   %  3.1471
     584    -116.42706    144.75765         28.33058  73.26452   584   %  3.1491
     585    -116.36494    144.97087         28.60593  73.53987   585   %  3.1484
     586    -116.42837    145.15288         28.72451  73.65845   586   %  3.1505
     587    -116.36595    145.36267         28.99672  73.93065   587   %  3.1498
     588    -116.42903    145.54339         29.11436  74.04830   588   %  3.1519
     589    -116.36693    145.75274         29.38581  74.31974   589   %  3.1512
     590    -116.42981    145.93361         29.50380  74.43773   590   %  3.1533
     591    -116.36866    146.14105         29.77239  74.70632   591   %  3.1526
     592    -116.43057    146.31972         29.88915  74.82309   592   %  3.1547
     593    -116.36854    146.52850         30.15996  75.09390   593   %  3.1540
     594    -116.43124    146.71026         30.27902  75.21296   594   %  3.1560
     595    -116.36933    146.92054         30.55121  75.48515   595   %  3.1553
     596    -116.43220    147.10060         30.66840  75.60233   596   %  3.1574
     597    -116.36768    147.31424         30.94656  75.88049   597   %  3.1567
     598    -116.43326    147.49561         31.06236  75.99629   598   %  3.1587
     599    -116.36614    147.71200         31.34585  76.27979   599   %  3.1580
     600    -116.43436    147.89269         31.45833  76.39226   600   %  3.1600
     601    -116.36487    148.10982         31.74495  76.67889   601   %  3.1593
     602    -116.43529    148.29036         31.85507  76.78900   602   %  3.1613
     603    -116.36591    148.50441         32.13851  77.07244   603   %  3.1607
     604    -116.43594    148.68444         32.24850  77.18243   604   %  3.1627
     605    -116.36322    148.90597         32.54275  77.47668   605   %  3.1620
     606    -116.43675    149.09317         32.65642  77.59036   606   %  3.1640
     607    -116.36350    149.31717         32.95368  77.88761   607   %  3.1634
     608    -116.43764    149.50178         33.06414  77.99808   608   %  3.1654
     609    -116.36100    149.72991         33.36891  78.30285   609   %  3.1647
     610    -116.43848    149.91759         33.47911  78.41305   610   %  3.1667
     611    -116.36380    150.14003         33.77623  78.71016   611   %  3.1660
     612    -116.43917    150.32216         33.88299  78.81692   612   %  3.1680
     613    -116.36077    150.55066         34.18989  79.12383   613   %  3.1673
     614    -116.43999    150.73805         34.29806  79.23199   614   %  3.1693
     615    -116.36162    150.96589         34.60427  79.53821   615   %  3.1687
     616    -116.44072    151.15051         34.70979  79.64372   616   %  3.1706
     617    -116.36089    151.37956         35.01867  79.95260   617   %  3.1700
     618    -116.44148    151.56364         35.12217  80.05610   618   %  3.1719
     619    -116.35886    151.79627         35.43741  80.37135   619   %  3.1713
     620    -116.44220    151.98115         35.53895  80.47289   620   %  3.1732
     621    -116.35679    152.21726         35.86048  80.79441   621   %  3.1726
     622    -116.44286    152.40241         35.95955  80.89349   622   %  3.1745
     623    -116.35442    152.64236         36.28794  81.22187   623   %  3.1739
     624    -116.44347    152.82853         36.38507  81.31900   624   %  3.1758
     625    -116.35148    153.07379         36.72231  81.65625   625   %  3.1752
     626    -116.44399    153.26152         36.81752  81.75146   626   %  3.1771
     627    -116.35009    153.50902         37.15894  82.09287   627   %  3.1765
     628    -116.44471    153.70001         37.25531  82.18924   628   %  3.1785
     629    -116.35358    153.94197         37.58839  82.52233   629   %  3.1779
     630    -116.44550    154.13121         37.68572  82.61965   630   %  3.1798
     631    -116.35531    154.37235         38.01704  82.95097   631   %  3.1792
     632    -116.44613    154.56023         38.11410  83.04803   632   %  3.1811
     633    -116.35295    154.80755         38.45461  83.38854   633   %  3.1805
     634    -116.44661    154.99664         38.55003  83.48397   634   %  3.1824
     635    -116.35409    155.24133         38.88724  83.82117   635   %  3.1818
     636    -116.44734    155.42943         38.98209  83.91602   636   %  3.1837
     637    -116.35398    155.67509         39.32111  84.25504   637   %  3.1831
     638    -116.44795    155.86483         39.41689  84.35082   638   %  3.1850
     639    -116.35153    156.11731         39.76578  84.69972   639   %  3.1844
     640    -116.44826    156.30691         39.85865  84.79258   640   %  3.1863
     641    -116.34748    156.56682         40.21935  85.15328   641   %  3.1857
     642    -116.44867    156.76020         40.31152  85.24546   642   %  3.1876
     643    -116.34937    157.01608         40.66672  85.60065   643   %  3.1870
     644    -116.44934    157.20615         40.75682  85.69075   644   %  3.1889
     645    -116.34525    157.47035         41.12509  86.05903   645   %  3.1882
     646    -116.44955    157.66499         41.21545  86.14938   646   %  3.1901
     647    -116.34198    157.93694         41.59497  86.52890   647   %  3.1895
     648    -116.44959    158.13152         41.68192  86.61586   648   %  3.1914
     649    -116.34048    158.40577         42.06528  86.99922   649   %  3.1908
     650    -116.44994    158.59990         42.14996  87.08389   650   %  3.1927
     651    -116.33976    158.87489         42.53513  87.46906   651   %  3.1921
     652    -116.45068    159.07173         42.62105  87.55499   652   %  3.1940
     653    -116.33720    159.35301         43.01581  87.94975   653   %  3.1934
     654    -116.45092    159.55331         43.10238  88.03632   654   %  3.1953
     655    -116.33796    159.83531         43.49735  88.43128   655   %  3.1947
     656    -116.45154    160.03415         43.58261  88.51655   656   %  3.1966
     657    -116.33465    160.32293         43.98828  88.92221   657   %  3.1960
     658    -116.45139    160.52371         44.07232  89.00625   658   %  3.1979
     659    -116.33010    160.82295         44.49284  89.42678   659   %  3.1973
     660    -116.45124    161.02638         44.57514  89.50908   660   %  3.1991
     661    -116.32703    161.33205         45.00502  89.93896   661   %  3.1986
     662    -116.45104    161.53576         45.08473  90.01866   662   %  3.2004
     663    -116.32319    161.84947         45.52628  90.46021   663   %  3.1999
     664    -116.45087    162.05545         45.60458  90.53851   664   %  3.2017
     665    -116.31898    162.37823         46.05926  90.99319   665   %  3.2012
     666    -116.45037    162.58592         46.13555  91.06949   666   %  3.2030
     667    -116.31827    162.91177         46.59350  91.52744   667   %  3.2025
     668    -116.45033    163.11691         46.66658  91.60051   668   %  3.2043
     669    -116.31815    163.44292         47.12477  92.05871   669   %  3.2039
     670    -116.45050    163.64641         47.19591  92.12985   670   %  3.2057
     671    -116.31932    163.97044         47.65112  92.58506   671   %  3.2052
     672    -116.45158    164.17442         47.72284  92.65678   672   %  3.2070
     673    -116.31205    164.51214         48.20009  93.13403   673   %  3.2065
     674    -116.44993    164.72122         48.27129  93.20522   674   %  3.2083
     675    -116.30988    165.07032         48.76045  93.69438   675   %  3.2078
     676    -116.45075    165.28189         48.83114  93.76508   676   %  3.2096
     677    -116.30724    165.63371         49.32646  94.26040   677   %  3.2092
     678    -116.44951    165.84406         49.39455  94.32849   678   %  3.2109
     679    -116.30449    166.20712         49.90263  94.83656   679   %  3.2105
     680    -116.44945    166.41857         49.96912  94.90306   680   %  3.2123
     681    -116.30248    166.78511         50.48263  95.41656   681   %  3.2119
     682    -116.45001    167.00011         50.55009  95.48403   682   %  3.2136
     683    -116.30134    167.36947         51.06813  96.00206   683   %  3.2132
     684    -116.44997    167.58510         51.13513  96.06906   684   %  3.2150
     685    -116.29576    167.96855         51.67278  96.60672   685   %  3.2145
     686    -116.44849    168.18686         51.73837  96.67231   686   %  3.2163
     687    -116.28934    168.58879         52.29944  97.23338   687   %  3.2159
     688    -116.44722    168.81065         52.36343  97.29737   688   %  3.2176
     689    -116.28542    169.22392         52.93849  97.87243   689   %  3.2172
     690    -116.44609    169.44616         53.00007  97.93400   690   %  3.2190
     691    -116.27859    169.87688         53.59829  98.53222   691   %  3.2186
     692    -116.44464    170.10375         53.65911  98.59305   692   %  3.2203
     693    -116.27806    170.54061         54.26255  99.19649   693   %  3.2200
     694    -116.44379    170.76351         54.31972  99.25365   694   %  3.2217
     695    -116.27926    171.20181         54.92255  99.85649   695   %  3.2214
     696    -116.44588    171.42681         54.98093  99.91487   696   %  3.2232
     697    -116.27541    171.86594         55.59053 100.52446   697   %  3.2228
     698    -116.44480    172.09456         55.64975 100.58369   698   %  3.2245
     699    -116.26972    172.55400         56.28428 101.21822   699   %  3.2241
     700    -116.44237    172.78331         56.34094 101.27487   700   %  3.2259
     701    -116.25819    173.27561         57.01742 101.95135   701   %  3.2255
     702    -116.43794    173.50926         57.07132 102.00526   702   %  3.2272
     703    -116.25938    174.01514         57.75576 102.68969   703   %  3.2270
     704    -116.44039    174.24905         57.80866 102.74260   704   %  3.2287
     705    -116.25275    174.75528         58.50253 103.43647   705   %  3.2284
     706    -116.43707    174.99205         58.55498 103.48891   706   %  3.2301
     707    -116.24504    175.53287         59.28782 104.22176   707   %  3.2298
     708    -116.43447    175.77274         59.33827 104.27221   708   %  3.2315
     709    -116.23931    176.33429         60.09498 105.02891   709   %  3.2312
     710    -116.43247    176.57614         60.14367 105.07761   710   %  3.2329


           POTENTIAL ENERGY HAS STOPPED DROPPING


 **********************
 *                    *
 * JOB ENDED NORMALLY *
 *                    *
 **********************



 TOTAL JOB TIME:             0.29 SECONDS

 == MOPAC DONE ==
