 *******************************************************************************
 ** Site#:  999         For non-commercial use only           Version 21.129  **
 *******************************************************************************
 ** Cite this program as: MOPAC2016, Version: 21.129 , James J. P. Stewart,   **
 ** Stewart Computational Chemistry, web-site: HTTP://OpenMOPAC.net.          **
 *******************************************************************************
 **                                                                           **
 **                                MOPAC2016                                  **
 **                                                                           **
 *******************************************************************************

                              PM7 CALCULATION RESULTS

 *******************************************************************************
 *  CALCULATION DONE:                                Sun Nov 20 12:22:50 2022  *
 *  PM7        - The PM7 Hamiltonian to be used
 *
 *
 *
 *                 CHARGE ON SYSTEM = 0
 *
 *
 *
 *  IRC=N      - INTRINSIC REACTION COORDINATE  1 DEFINED
 *  PRECISE    - TIGHTER CRITERIA TO BE USED
 *  THREADS=1  - MULTI-THREADING NOT USED
 *  T=         - A TIME OF 172800.0 SECONDS REQUESTED
 *  DUMP=N     - RESTART FILE WRITTEN EVERY 7200.0 SECONDS REQUESTED
 *  CYCLES=    - DO A MAXIMUM OF 5000 STEPS
 *  OLDENS     - INITIAL DENSITY MATRIX READ OFF DISK
 *******************************************************************************
   pm7 threads=1 charge=0 irc= 1 oldens precise cycles=5000
 title
 title
   ATOM   CHEMICAL          X               Y               Z
  NUMBER   SYMBOL      (ANGSTROMS)     (ANGSTROMS)     (ANGSTROMS)
 
     1       C          0.00000000  *   0.00000000  *   0.00000000  *
     2       O          1.27925438  *   0.00000000  *   0.00000000  *
     3       O         -0.31550426  *   1.23971547  *   0.00000000  *
     4       H         -0.65649060  *  -0.84450464  *  -0.00003040  *
     5       H          1.06231956  *   1.36644115  *   0.00040048  *
 


          CARTESIAN COORDINATES 

    NO.       ATOM           X           Y           Z

     1         C          0.0000      0.0000      0.0000
     2         O          1.2793      0.0000      0.0000
     3         O         -0.3155      1.2397      0.0000
     4         H         -0.6565     -0.8445     -0.0000
     5         H          1.0623      1.3664      0.0004

 General Reference for PM7:
 "Optimization of Parameters for Semiempirical Methods VI: More Modifications to the 
 NDDO Approximations and Re-optimization of Parameters", J. J. P. Stewart, J. Mol. Mod., 1:32, 19 (2013)
 https://link.springer.com/article/10.1007/s00894-012-1667-x

           Empirical Formula: C H2 O2  =     5 atoms



      MOLECULAR POINT GROUP   :   C2v 


      RHF CALCULATION, NO. OF DOUBLY OCCUPIED LEVELS = 9



          HEAT OF FORMATION =     -54.812148 KCALS/MOLE


          GRADIENT NORM =   0.08112

          MOLECULAR WEIGHT =   46.03


          ESTIMATED TIME TO COMPLETE CALCULATION =        0.00 SECONDS

    FOR POINT-GROUP C2v  THERE ARE   4 UNIQUE SYMMETRY FUNCTIONS.

 STEP:   1 TIME =     0.00 SECS, INTEGRAL =      0.00 TIME LEFT: 172800.00
 STEP:   2 TIME =     0.00 SECS, INTEGRAL =      0.00 TIME LEFT: 172800.00
 STEP:   3 TIME =     0.00 SECS, INTEGRAL =      0.01 TIME LEFT: 172799.99
 STEP:   4 TIME =     0.00 SECS, INTEGRAL =      0.01 TIME LEFT: 172799.99
 STEP:   5 TIME =     0.00 SECS, INTEGRAL =      0.01 TIME LEFT: 172799.99
 STEP:   6 TIME =     0.00 SECS, INTEGRAL =      0.01 TIME LEFT: 172799.99
 STEP:   7                       INTEGRAL =      0.01 TIME LEFT: 172799.99
 STEP:   8                       INTEGRAL =      0.01 TIME LEFT: 172799.99
 STEP:   9                       INTEGRAL =      0.01 TIME LEFT: 172799.99
 STEP:  10 TIME =     0.00 SECS, INTEGRAL =      0.02 TIME LEFT: 172799.98
 STEP:  11 TIME =     0.00 SECS, INTEGRAL =      0.02 TIME LEFT: 172799.98
 STEP:  12 TIME =     0.00 SECS, INTEGRAL =      0.02 TIME LEFT: 172799.98
 STEP:  13 TIME =     0.00 SECS, INTEGRAL =      0.02 TIME LEFT: 172799.98
 STEP:  14 TIME =     0.00 SECS, INTEGRAL =      0.02 TIME LEFT: 172799.98
 STEP:  15 TIME =     0.00 SECS, INTEGRAL =      0.02 TIME LEFT: 172799.98
  Stopping critera: r_ij>5*r_ij(0)
 
           INITIAL VELOCITY IN DRC (Angstroms/Femtosecond)
        -0.04829         0.03754        -0.00000
         0.02065         0.03331         0.00001
        -0.02719        -0.02823        -0.00001
         0.03842        -0.02987        -0.00000
         0.64091        -0.49821         0.00000
 
  Deltat    =   0.24 fs
  Maxcyc    =      5000
  Jloop_lim =      5000
 
  Initial distance matrix
  Bond#     i     j    Ini_value(A)
      1     1     2          1.279
      2     1     3          1.279
      3     1     4          1.070
      4     1     5          1.731
      5     2     3          2.020
      6     2     4          2.112
      7     2     5          1.384
      8     3     4          2.112
      9     3     5          1.384
     10     4     5          2.800
 
 


     POINT   POTENTIAL  +  ENERGY LOST   =   TOTAL      ERROR    REF%   MOVEMENT
       1     -54.81215      0.00000        -54.81215   0.00000     1   %  0.0000
       2     -54.81248      0.00000        -54.81248  -0.00033     2   %  0.0018
       3     -54.81343      0.00000        -54.81343  -0.00128     3   %  0.0036
       4     -54.82936      0.00000        -54.82936  -0.01722     4   %  0.0135
       5     -54.86306      0.00000        -54.86306  -0.03369     5   %  0.0233
       6     -54.91584      0.10486        -54.81099   0.01838     6   %  0.0333
       7     -54.98440      0.18208        -54.80232   0.02704     7   %  0.0430
       8     -55.07262      0.27256        -54.80006   0.02930     8   %  0.0529
       9     -55.17810      0.37992        -54.79818   0.03118     9   %  0.0628
      10     -55.30064      0.50454        -54.79610   0.03326    10   %  0.0726
      11     -55.44075      0.64683        -54.79393   0.03544    11   %  0.0825
      12     -55.59815      0.80649        -54.79166   0.03771    12   %  0.0924
      13     -55.77341      0.98408        -54.78933   0.04004    13   %  0.1024
      14     -55.96559      1.17866        -54.78693   0.04243    14   %  0.1124
      15     -56.17377      1.38926        -54.78451   0.04485    15   %  0.1224
      16     -56.39426      1.61216        -54.78209   0.04727    16   %  0.1323
      17     -56.62897      1.84921        -54.77975   0.04961    17   %  0.1421
      18     -56.88009      2.10264        -54.77746   0.05191    18   %  0.1520
      19     -57.14326      2.36810        -54.77516   0.05420    19   %  0.1619
      20     -57.42201      2.64908        -54.77294   0.05643    20   %  0.1718
      21     -57.71367      2.94293        -54.77073   0.05863    21   %  0.1817
      22     -58.01798      3.24939        -54.76859   0.06078    22   %  0.1917
      23     -58.33756      3.57106        -54.76650   0.06286    23   %  0.2017
      24     -58.66927      3.90482        -54.76445   0.06491    24   %  0.2118
      25     -59.00727      4.24480        -54.76247   0.06689    25   %  0.2217
      26     -59.35588      4.59526        -54.76062   0.06875    26   %  0.2316
      27     -59.71836      4.95952        -54.75884   0.07052    27   %  0.2417
      28     -60.08674      5.32962        -54.75712   0.07225    28   %  0.2517
      29     -60.46526      5.70975        -54.75551   0.07385    29   %  0.2617
      30     -60.85023      6.09624        -54.75399   0.07538    30   %  0.2718
      31     -61.24291      6.49035        -54.75256   0.07680    31   %  0.2818
      32     -61.64010      6.88886        -54.75124   0.07812    32   %  0.2918
      33     -62.04664      7.29662        -54.75002   0.07934    33   %  0.3019
      34     -62.46204      7.71317        -54.74887   0.08049    34   %  0.3121
      35     -62.88064      8.13282        -54.74782   0.08154    35   %  0.3222
      36     -63.30301      8.55613        -54.74688   0.08249    36   %  0.3324
      37     -63.72581      8.97977        -54.74604   0.08332    37   %  0.3424
      38     -64.15669      9.41138        -54.74531   0.08405    38   %  0.3526
      39     -64.58898      9.84431        -54.74467   0.08469    39   %  0.3628
      40     -65.02355     10.27942        -54.74413   0.08524    40   %  0.3731
      41     -65.46206     10.71837        -54.74368   0.08568    41   %  0.3833
      42     -65.90209     11.15876        -54.74333   0.08603    42   %  0.3937
      43     -66.34161     11.59854        -54.74307   0.08629    43   %  0.4040
      44     -66.77982     12.03691        -54.74291   0.08645    44   %  0.4143
      45     -67.21302     12.47018        -54.74284   0.08652    45   %  0.4245
      46     -67.64503     12.90239        -54.74265   0.08672    46   %  0.4347
      47     -68.07883     13.33622        -54.74261   0.08675    47   %  0.4450
      48     -68.57378     13.83119        -54.74258   0.08678    48   %  0.4568
      49     -69.23432     14.49160        -54.74271   0.08665    49   %  0.4727
      50     -69.66115     14.91773        -54.74342   0.08594    50   %  0.4831
      51     -70.08352     15.33977        -54.74375   0.08562    51   %  0.4935
      52     -70.50677     15.76262        -54.74415   0.08521    52   %  0.5040
      53     -70.92484     16.18019        -54.74465   0.08472    53   %  0.5145
      54     -71.33820     16.59300        -54.74520   0.08416    54   %  0.5250
      55     -71.74572     16.99990        -54.74582   0.08354    55   %  0.5355
      56     -72.15045     17.40397        -54.74649   0.08288    56   %  0.5460
      57     -72.55195     17.80474        -54.74721   0.08215    57   %  0.5566
      58     -72.94904     18.20105        -54.74799   0.08137    58   %  0.5673
      59     -73.34215     18.59333        -54.74882   0.08054    59   %  0.5780
      60     -73.72664     18.97693        -54.74970   0.07966    60   %  0.5886
      61     -74.10623     19.35562        -54.75061   0.07875    61   %  0.5992
      62     -74.48256     19.73101        -54.75155   0.07781    62   %  0.6099
      63     -74.85538     20.10284        -54.75254   0.07683    63   %  0.6208
      64     -75.22322     20.46966        -54.75357   0.07580    64   %  0.6316
      65     -75.58534     20.83071        -54.75463   0.07474    65   %  0.6425
      66     -75.94290     21.18719        -54.75572   0.07365    66   %  0.6535
      67     -76.29147     21.53464        -54.75683   0.07253    67   %  0.6644
      68     -76.63327     21.87532        -54.75795   0.07142    68   %  0.6753
      69     -76.97465     22.21558        -54.75907   0.07029    69   %  0.6864
      70     -77.30737     22.54712        -54.76025   0.06912    70   %  0.6974
      71     -77.63771     22.87630        -54.76141   0.06795    71   %  0.7086
      72     -77.95947     23.19686        -54.76261   0.06675    72   %  0.7197
      73     -78.27502     23.51122        -54.76380   0.06557    73   %  0.7308
      74     -78.58566     23.82068        -54.76498   0.06438    74   %  0.7420
      75     -78.89140     24.12522        -54.76618   0.06319    75   %  0.7533
      76     -79.19123     24.42385        -54.76737   0.06199    76   %  0.7646
      77     -79.49034     24.72177        -54.76857   0.06080    77   %  0.7761
      78     -79.78300     25.01320        -54.76979   0.05957    78   %  0.7876
      79     -80.07116     25.30015        -54.77101   0.05835    79   %  0.7992
      80     -80.35593     25.58370        -54.77222   0.05714    80   %  0.8109
      81     -80.63172     25.85827        -54.77344   0.05592    81   %  0.8224
      82     -80.90368     26.12905        -54.77462   0.05474    82   %  0.8341
      83     -81.17076     26.39496        -54.77580   0.05356    83   %  0.8458
      84     -81.43339     26.65642        -54.77697   0.05240    84   %  0.8576
      85     -81.69283     26.91471        -54.77812   0.05124    85   %  0.8694
      86     -81.95007     27.17079        -54.77928   0.05009    86   %  0.8815
      87     -82.20500     27.42457        -54.78044   0.04893    87   %  0.8936
      88     -82.45672     27.67511        -54.78161   0.04776    88   %  0.9059
      89     -82.70458     27.92181        -54.78277   0.04659    89   %  0.9182
      90     -82.94899     28.16507        -54.78392   0.04544    90   %  0.9306
      91     -83.18635     28.40128        -54.78506   0.04430    91   %  0.9429
      92     -83.42260     28.63643        -54.78617   0.04320    92   %  0.9554
      93     -83.65709     28.86981        -54.78728   0.04208    93   %  0.9681
      94     -83.88841     29.10001        -54.78840   0.04096    94   %  0.9808
      95     -84.11581     29.32630        -54.78952   0.03985    95   %  0.9935
      96     -84.33994     29.54932        -54.79062   0.03875    96   %  1.0063
      97     -84.56202     29.77031        -54.79171   0.03765    97   %  1.0193
      98     -84.77816     29.98535        -54.79281   0.03655    98   %  1.0321
      99     -84.99218     30.19830        -54.79388   0.03548    99   %  1.0451
     100     -85.20267     30.40771        -54.79496   0.03440   100   %  1.0581
     101     -85.41265     30.61661        -54.79604   0.03332   101   %  1.0714
     102     -85.61798     30.82083        -54.79715   0.03222   102   %  1.0846
     103     -85.81968     31.02143        -54.79824   0.03112   103   %  1.0979
     104     -86.01878     31.21944        -54.79934   0.03002   104   %  1.1114
     105     -86.21467     31.41421        -54.80046   0.02891   105   %  1.1249
     106     -86.40558     31.60400        -54.80158   0.02778   106   %  1.1384
     107     -86.59411     31.79141        -54.80270   0.02666   107   %  1.1521
     108     -86.78035     31.97650        -54.80385   0.02551   108   %  1.1659
     109     -86.96117     32.15613        -54.80504   0.02432   109   %  1.1798
     110     -87.13722     32.33100        -54.80622   0.02315   110   %  1.1937
     111     -87.30871     32.50130        -54.80741   0.02196   111   %  1.2077
     112     -87.47449     32.66588        -54.80861   0.02075   112   %  1.2218
     113     -87.63642     32.82661        -54.80982   0.01955   113   %  1.2359
     114     -87.79090     32.97984        -54.81106   0.01831   114   %  1.2500
     115     -87.94145     33.12918        -54.81227   0.01710   115   %  1.2643
     116     -88.08629     33.27277        -54.81353   0.01584   116   %  1.2786
     117     -88.22484     33.41005        -54.81480   0.01457   117   %  1.2930
     118     -88.35630     33.54023        -54.81607   0.01329   118   %  1.3074
     119     -88.48020     33.66286        -54.81733   0.01203   119   %  1.3216
     120     -88.59914     33.78056        -54.81858   0.01079   120   %  1.3361
     121     -88.71093     33.89105        -54.81988   0.00949   121   %  1.3506
     122     -88.81513     33.99397        -54.82116   0.00821   122   %  1.3649
     123     -88.91391     34.09148        -54.82242   0.00694   123   %  1.3796
     124     -89.00514     34.18139        -54.82375   0.00561   124   %  1.3941
     125     -89.08831     34.26325        -54.82505   0.00431   125   %  1.4086
     126     -89.16534     34.33902        -54.82632   0.00304   126   %  1.4232
     127     -89.23481     34.40717        -54.82765   0.00172   127   %  1.4377
     128     -89.29750     34.46855        -54.82895   0.00041   128   %  1.4523
     129     -89.35308     34.52279        -54.83029  -0.00092   129   %  1.4670
     130     -89.40119     34.56956        -54.83163  -0.00227   130   %  1.4816
     131     -89.44271     34.60974        -54.83297  -0.00361   131   %  1.4963
     132     -89.47706     34.64285        -54.83422  -0.00485   132   %  1.5110
     133     -89.49808     34.66733        -54.83075  -0.00138   133   %  1.5238
     134     -89.50005     34.69643        -54.80362   0.02574   134   %  1.5283
     135     -89.50873     34.74438        -54.76435   0.06501   135   %  1.5306
     136     -89.50668     34.80078        -54.70590   0.12346   136   %  1.5337
     137     -89.51570     34.85393        -54.66177   0.16760   137   %  1.5355
     138     -89.51220     34.91205        -54.60015   0.22921   138   %  1.5386
     139     -89.52172     34.96397        -54.55776   0.27161   139   %  1.5400
     140     -89.51665     35.02032        -54.49634   0.33303   140   %  1.5429
     141     -89.52626     35.07165        -54.45462   0.37475   141   %  1.5440
     142     -89.52022     35.12730        -54.39292   0.43644   142   %  1.5468
     143     -89.52968     35.17914        -54.35054   0.47882   143   %  1.5475
     144     -89.52315     35.23491        -54.28825   0.54111   144   %  1.5502
     145     -89.53252     35.28629        -54.24623   0.58313   145   %  1.5507
     146     -89.52505     35.34236        -54.18269   0.64667   146   %  1.5532
     147     -89.53491     35.39360        -54.14131   0.68806   147   %  1.5535
     148     -89.52650     35.44954        -54.07695   0.75241   148   %  1.5559
     149     -89.53655     35.50181        -54.03474   0.79463   149   %  1.5559
     150     -89.52775     35.55866        -53.96910   0.86027   150   %  1.5582
     151     -89.53805     35.61084        -53.92722   0.90215   151   %  1.5582
     152     -89.52866     35.66750        -53.86116   0.96821   152   %  1.5603
     153     -89.53935     35.71876        -53.82059   1.00878   153   %  1.5601
     154     -89.52886     35.77575        -53.75311   1.07625   154   %  1.5622
     155     -89.54031     35.82781        -53.71250   1.11687   155   %  1.5619
     156     -89.52982     35.88380        -53.64601   1.18335   156   %  1.5638
     157     -89.54104     35.93454        -53.60651   1.22286   157   %  1.5634
     158     -89.53016     35.99019        -53.53997   1.28940   158   %  1.5653
     159     -89.54139     36.04223        -53.49916   1.33020   159   %  1.5647
     160     -89.53016     36.10009        -53.43007   1.39930   160   %  1.5665
     161     -89.54202     36.15268        -53.38933   1.44003   161   %  1.5660
     162     -89.52981     36.21152        -53.31829   1.51107   162   %  1.5677
     163     -89.54258     36.26417        -53.27840   1.55096   163   %  1.5670
     164     -89.52954     36.32312        -53.20642   1.62295   164   %  1.5687
     165     -89.54301     36.37555        -53.16746   1.66190   165   %  1.5680
     166     -89.52893     36.43537        -53.09356   1.73581   166   %  1.5696
     167     -89.54338     36.48849        -53.05489   1.77448   167   %  1.5688
     168     -89.52852     36.54895        -52.97956   1.84980   168   %  1.5704
     169     -89.54375     36.60160        -52.94215   1.88722   169   %  1.5696
     170     -89.52822     36.66164        -52.86658   1.96279   170   %  1.5711
     171     -89.54396     36.71406        -52.82991   1.99946   171   %  1.5702
     172     -89.52813     36.77378        -52.75435   2.07501   172   %  1.5717
     173     -89.54419     36.82526        -52.71893   2.11044   173   %  1.5708
     174     -89.52743     36.88557        -52.64186   2.18750   174   %  1.5722
     175     -89.54433     36.93790        -52.60643   2.22293   175   %  1.5713
     176     -89.52644     37.00023        -52.52621   2.30315   176   %  1.5727
     177     -89.54457     37.05307        -52.49149   2.33787   177   %  1.5717
     178     -89.52551     37.11642        -52.40909   2.42027   178   %  1.5731
     179     -89.54470     37.16977        -52.37493   2.45443   179   %  1.5721
     180     -89.52444     37.23471        -52.28973   2.53963   180   %  1.5735
     181     -89.54482     37.28878        -52.25605   2.57332   181   %  1.5725
     182     -89.52425     37.35338        -52.17087   2.65849   182   %  1.5738
     183     -89.54491     37.40619        -52.13872   2.69065   183   %  1.5727
     184     -89.52290     37.47245        -52.05045   2.77892   184   %  1.5740
     185     -89.54498     37.52592        -52.01906   2.81030   185   %  1.5730
     186     -89.52153     37.59403        -51.92750   2.90187   186   %  1.5743
     187     -89.54501     37.64857        -51.89643   2.93293   187   %  1.5732
     188     -89.52063     37.71793        -51.80270   3.02666   188   %  1.5745
     189     -89.54501     37.77239        -51.77262   3.05674   189   %  1.5734
     190     -89.51838     37.84551        -51.67287   3.15649   190   %  1.5746
     191     -89.54492     37.90147        -51.64345   3.18592   191   %  1.5735
     192     -89.51788     37.97466        -51.54322   3.28615   192   %  1.5747
     193     -89.54487     38.02966        -51.51521   3.31415   193   %  1.5736
     194     -89.51515     38.10735        -51.40779   3.42157   194   %  1.5749
     195     -89.54466     38.16485        -51.37981   3.44955   195   %  1.5737
     196     -89.51325     38.24605        -51.26720   3.56217   196   %  1.5749
     197     -89.54445     38.30432        -51.24013   3.58924   197   %  1.5738
     198     -89.51260     38.38611        -51.12649   3.70288   198   %  1.5750
     199     -89.54434     38.44398        -51.10035   3.72901   199   %  1.5738
     200     -89.50998     38.53033        -50.97965   3.84971   200   %  1.5750
     201     -89.54388     38.58979        -50.95409   3.87528   201   %  1.5739
     202     -89.50818     38.67974        -50.82844   4.00093   202   %  1.5750
     203     -89.54339     38.73876        -50.80464   4.02473   203   %  1.5739
     204     -89.50528     38.83388        -50.67140   4.15797   204   %  1.5750
     205     -89.54289     38.89489        -50.64800   4.18136   205   %  1.5739
     206     -89.50270     38.99500        -50.50770   4.32167   206   %  1.5750
     207     -89.54204     39.05627        -50.48577   4.34359   207   %  1.5738
     208     -89.49908     39.16436        -50.33472   4.49465   208   %  1.5750
     209     -89.54125     39.22794        -50.31330   4.51606   209   %  1.5738
     210     -89.49644     39.34170        -50.15474   4.67463   210   %  1.5749
     211     -89.54018     39.40535        -50.13483   4.69453   211   %  1.5737
     212     -89.49098     39.53165        -49.95933   4.87003   212   %  1.5749
     213     -89.53835     39.59802        -49.94033   4.88904   213   %  1.5737
     214     -89.48680     39.73641        -49.75039   5.07897   214   %  1.5748
     215     -89.53692     39.80433        -49.73259   5.09677   215   %  1.5736
     216     -89.48213     39.95448        -49.52765   5.30171   216   %  1.5747
     217     -89.53522     40.02466        -49.51055   5.31881   217   %  1.5735
     218     -89.47586     40.19161        -49.28425   5.54512   218   %  1.5746
     219     -89.53277     40.26495        -49.26782   5.56154   219   %  1.5734
     220     -89.46727     40.45665        -49.01062   5.81874   220   %  1.5746
     221     -89.52865     40.53312        -48.99552   5.83384   221   %  1.5733
     222     -89.45953     40.75632        -48.70322   6.12615   222   %  1.5744
     223     -89.52476     40.83504        -48.68972   6.13964   223   %  1.5731
     224     -89.45252     41.08738        -48.36515   6.46422   224   %  1.5743
     225     -89.52182     41.16948        -48.35233   6.47703   225   %  1.5729


           POTENTIAL ENERGY HAS STOPPED DROPPING


 **********************
 *                    *
 * JOB ENDED NORMALLY *
 *                    *
 **********************



 TOTAL JOB TIME:             0.11 SECONDS

 == MOPAC DONE ==
