 *******************************************************************************
 ** Site#:  999         For non-commercial use only           Version 21.129  **
 *******************************************************************************
 ** Cite this program as: MOPAC2016, Version: 21.129 , James J. P. Stewart,   **
 ** Stewart Computational Chemistry, web-site: HTTP://OpenMOPAC.net.          **
 *******************************************************************************
 **                                                                           **
 **                                MOPAC2016                                  **
 **                                                                           **
 *******************************************************************************

                              PM7 CALCULATION RESULTS

 *******************************************************************************
 *  CALCULATION DONE:                                Sun Nov 20 12:22:50 2022  *
 *  PM7        - The PM7 Hamiltonian to be used
 *
 *
 *
 *                 CHARGE ON SYSTEM = 0
 *
 *
 *
 *  IRC=N      - INTRINSIC REACTION COORDINATE -1 DEFINED
 *  PRECISE    - TIGHTER CRITERIA TO BE USED
 *  THREADS=1  - MULTI-THREADING NOT USED
 *  T=         - A TIME OF 172800.0 SECONDS REQUESTED
 *  DUMP=N     - RESTART FILE WRITTEN EVERY 7200.0 SECONDS REQUESTED
 *  CYCLES=    - DO A MAXIMUM OF 5000 STEPS
 *  OLDENS     - INITIAL DENSITY MATRIX READ OFF DISK
 *******************************************************************************
   pm7 threads=1 charge=0 irc=-1 oldens precise cycles=5000
 title
 title
   ATOM   CHEMICAL          X               Y               Z
  NUMBER   SYMBOL      (ANGSTROMS)     (ANGSTROMS)     (ANGSTROMS)
 
     1       C          0.00000000  *   0.00000000  *   0.00000000  *
     2       O          1.27925438  *   0.00000000  *   0.00000000  *
     3       O         -0.31550426  *   1.23971547  *   0.00000000  *
     4       H         -0.65649060  *  -0.84450464  *  -0.00003040  *
     5       H          1.06231956  *   1.36644115  *   0.00040048  *
 


          CARTESIAN COORDINATES 

    NO.       ATOM           X           Y           Z

     1         C          0.0000      0.0000      0.0000
     2         O          1.2793      0.0000      0.0000
     3         O         -0.3155      1.2397      0.0000
     4         H         -0.6565     -0.8445     -0.0000
     5         H          1.0623      1.3664      0.0004

 General Reference for PM7:
 "Optimization of Parameters for Semiempirical Methods VI: More Modifications to the 
 NDDO Approximations and Re-optimization of Parameters", J. J. P. Stewart, J. Mol. Mod., 1:32, 19 (2013)
 https://link.springer.com/article/10.1007/s00894-012-1667-x

           Empirical Formula: C H2 O2  =     5 atoms



      MOLECULAR POINT GROUP   :   C2v 


      RHF CALCULATION, NO. OF DOUBLY OCCUPIED LEVELS = 9



          HEAT OF FORMATION =     -54.812148 KCALS/MOLE


          GRADIENT NORM =   0.08112

          MOLECULAR WEIGHT =   46.03


          ESTIMATED TIME TO COMPLETE CALCULATION =        0.00 SECONDS

    FOR POINT-GROUP C2v  THERE ARE   4 UNIQUE SYMMETRY FUNCTIONS.

 STEP:   1 TIME =     0.00 SECS, INTEGRAL =      0.00 TIME LEFT: 172800.00
 STEP:   2 TIME =     0.00 SECS, INTEGRAL =      0.00 TIME LEFT: 172800.00
 STEP:   3 TIME =     0.00 SECS, INTEGRAL =      0.00 TIME LEFT: 172800.00
 STEP:   4 TIME =     0.00 SECS, INTEGRAL =      0.01 TIME LEFT: 172799.99
 STEP:   5 TIME =     0.00 SECS, INTEGRAL =      0.01 TIME LEFT: 172799.99
 STEP:   6 TIME =     0.00 SECS, INTEGRAL =      0.01 TIME LEFT: 172799.99
 STEP:   7                       INTEGRAL =      0.01 TIME LEFT: 172799.99
 STEP:   8                       INTEGRAL =      0.01 TIME LEFT: 172799.99
 STEP:   9                       INTEGRAL =      0.01 TIME LEFT: 172799.99
 STEP:  10 TIME =     0.00 SECS, INTEGRAL =      0.01 TIME LEFT: 172799.99
 STEP:  11 TIME =     0.00 SECS, INTEGRAL =      0.02 TIME LEFT: 172799.98
 STEP:  12 TIME =     0.00 SECS, INTEGRAL =      0.02 TIME LEFT: 172799.98
 STEP:  13 TIME =     0.00 SECS, INTEGRAL =      0.02 TIME LEFT: 172799.98
 STEP:  14 TIME =     0.00 SECS, INTEGRAL =      0.02 TIME LEFT: 172799.98
 STEP:  15 TIME =     0.00 SECS, INTEGRAL =      0.02 TIME LEFT: 172799.98
  Stopping critera: r_ij>5*r_ij(0)
 
           INITIAL VELOCITY IN DRC (Angstroms/Femtosecond)
        -0.04829         0.03754        -0.00000
         0.02065         0.03331         0.00001
        -0.02719        -0.02823        -0.00001
         0.03842        -0.02987        -0.00000
         0.64091        -0.49821         0.00000
 
  Deltat    =   0.24 fs
  Maxcyc    =      5000
  Jloop_lim =      5000
 
  Initial distance matrix
  Bond#     i     j    Ini_value(A)
      1     1     2          1.279
      2     1     3          1.279
      3     1     4          1.070
      4     1     5          1.731
      5     2     3          2.020
      6     2     4          2.112
      7     2     5          1.384
      8     3     4          2.112
      9     3     5          1.384
     10     4     5          2.800
 
 


     POINT   POTENTIAL  +  ENERGY LOST   =   TOTAL      ERROR    REF%   MOVEMENT
       1     -54.81215      0.00000        -54.81215   0.00000     1   %  0.0000
       2     -54.81243      0.00000        -54.81243  -0.00028     2   %  0.0018
       3     -54.81333      0.00000        -54.81333  -0.00118     3   %  0.0036
       4     -54.82898      0.00000        -54.82898  -0.01683     4   %  0.0135
       5     -54.86255      0.00000        -54.86255  -0.03358     5   %  0.0233
       6     -54.91510      0.10516        -54.80993   0.01904     6   %  0.0333
       7     -54.98284      0.18161        -54.80123   0.02775     7   %  0.0429
       8     -55.07150      0.27249        -54.79900   0.02997     8   %  0.0529
       9     -55.17663      0.37954        -54.79709   0.03188     9   %  0.0628
      10     -55.30047      0.50544        -54.79503   0.03395    10   %  0.0728
      11     -55.43996      0.64716        -54.79280   0.03618    11   %  0.0826
      12     -55.59778      0.80724        -54.79054   0.03844    12   %  0.0926
      13     -55.77036      0.98217        -54.78818   0.04079    13   %  0.1024
      14     -55.96205      1.17620        -54.78585   0.04313    14   %  0.1124
      15     -56.16805      1.38462        -54.78343   0.04555    15   %  0.1223
      16     -56.39074      1.60970        -54.78104   0.04793    16   %  0.1323
      17     -56.62515      1.84650        -54.77865   0.05032    17   %  0.1421
      18     -56.87835      2.10201        -54.77635   0.05263    18   %  0.1521
      19     -57.14352      2.36950        -54.77401   0.05497    19   %  0.1620
      20     -57.42189      2.65014        -54.77175   0.05723    20   %  0.1719
      21     -57.71642      2.94688        -54.76954   0.05944    21   %  0.1820
      22     -58.02373      3.25638        -54.76735   0.06162    22   %  0.1920
      23     -58.34335      3.57812        -54.76522   0.06375    23   %  0.2020
      24     -58.67173      3.90856        -54.76317   0.06581    24   %  0.2120
      25     -59.01294      4.25172        -54.76122   0.06775    25   %  0.2220
      26     -59.36074      4.60140        -54.75934   0.06964    26   %  0.2319
      27     -59.71956      4.96199        -54.75757   0.07140    27   %  0.2419
      28     -60.08501      5.32912        -54.75589   0.07309    28   %  0.2518
      29     -60.46416      5.70986        -54.75430   0.07468    29   %  0.2619
      30     -60.85261      6.09984        -54.75277   0.07621    30   %  0.2720
      31     -61.24791      6.49659        -54.75132   0.07765    31   %  0.2821
      32     -61.64426      6.89427        -54.74998   0.07899    32   %  0.2920
      33     -62.04779      7.29902        -54.74878   0.08020    33   %  0.3021
      34     -62.46161      7.71397        -54.74764   0.08133    34   %  0.3122
      35     -62.88197      8.13538        -54.74660   0.08238    35   %  0.3224
      36     -63.29915      8.55349        -54.74566   0.08332    36   %  0.3324
      37     -63.72552      8.98069        -54.74484   0.08414    37   %  0.3426
      38     -64.15512      9.41102        -54.74410   0.08488    38   %  0.3528
      39     -64.58413      9.84067        -54.74346   0.08551    39   %  0.3629
      40     -65.01803     10.27510        -54.74293   0.08605    40   %  0.3731
      41     -65.45041     10.70791        -54.74249   0.08648    41   %  0.3832
      42     -65.88811     11.14596        -54.74215   0.08683    42   %  0.3935
      43     -66.32202     11.58012        -54.74190   0.08708    43   %  0.4037
      44     -66.75904     12.01730        -54.74174   0.08724    44   %  0.4139
      45     -67.19112     12.44946        -54.74167   0.08731    45   %  0.4241
      46     -67.62538     12.88370        -54.74168   0.08730    46   %  0.4344
      47     -68.23435     13.49324        -54.74110   0.08787    47   %  0.4488
      48     -68.66947     13.92797        -54.74150   0.08748    48   %  0.4592
      49     -69.09989     14.35830        -54.74159   0.08739    49   %  0.4696
      50     -69.52561     14.78380        -54.74181   0.08717    50   %  0.4800
      51     -69.95086     15.20876        -54.74211   0.08687    51   %  0.4904
      52     -70.37679     15.63431        -54.74248   0.08650    52   %  0.5009
      53     -70.79828     16.05534        -54.74294   0.08604    53   %  0.5115
      54     -71.21477     16.47130        -54.74346   0.08551    54   %  0.5220
      55     -71.62900     16.88495        -54.74405   0.08493    55   %  0.5326
      56     -72.03442     17.28971        -54.74470   0.08427    56   %  0.5431
      57     -72.44007     17.69467        -54.74540   0.08357    57   %  0.5538
      58     -72.84115     18.09498        -54.74617   0.08281    58   %  0.5645
      59     -73.23433     18.48734        -54.74699   0.08199    59   %  0.5751
      60     -73.62104     18.87319        -54.74785   0.08113    60   %  0.5858
      61     -74.00789     19.25916        -54.74874   0.08024    61   %  0.5966
      62     -74.38710     19.63741        -54.74969   0.07928    62   %  0.6074
      63     -74.76014     20.00946        -54.75068   0.07830    63   %  0.6181
      64     -75.12841     20.37671        -54.75169   0.07728    64   %  0.6290
      65     -75.49355     20.74080        -54.75274   0.07623    65   %  0.6399
      66     -75.84937     21.09553        -54.75383   0.07514    66   %  0.6507
      67     -76.20282     21.44789        -54.75493   0.07405    67   %  0.6617
      68     -76.54588     21.78982        -54.75606   0.07292    68   %  0.6726
      69     -76.88613     22.12894        -54.75719   0.07179    69   %  0.6836
      70     -77.22434     22.46600        -54.75834   0.07063    70   %  0.6948
      71     -77.55561     22.79607        -54.75954   0.06944    71   %  0.7059
      72     -77.88090     23.12016        -54.76074   0.06823    72   %  0.7171
      73     -78.19937     23.43743        -54.76195   0.06703    73   %  0.7283
      74     -78.51024     23.74709        -54.76315   0.06582    74   %  0.7394
      75     -78.81990     24.05555        -54.76435   0.06463    75   %  0.7508
      76     -79.12327     24.35770        -54.76558   0.06340    76   %  0.7621
      77     -79.42229     24.65550        -54.76680   0.06218    77   %  0.7736
      78     -79.71718     24.94915        -54.76803   0.06095    78   %  0.7851
      79     -80.00705     25.23778        -54.76926   0.05971    79   %  0.7967
      80     -80.29108     25.52059        -54.77050   0.05848    80   %  0.8083
      81     -80.56962     25.79790        -54.77172   0.05726    81   %  0.8199
      82     -80.84399     26.07106        -54.77293   0.05605    82   %  0.8317
      83     -81.11541     26.34128        -54.77414   0.05484    83   %  0.8435
      84     -81.37877     26.60342        -54.77535   0.05363    84   %  0.8552
      85     -81.63905     26.86253        -54.77652   0.05245    85   %  0.8671
      86     -81.89512     27.11742        -54.77770   0.05128    86   %  0.8790
      87     -82.14703     27.36817        -54.77886   0.05012    87   %  0.8910
      88     -82.39582     27.61581        -54.78001   0.04896    88   %  0.9030
      89     -82.64258     27.86141        -54.78116   0.04781    89   %  0.9153
      90     -82.88738     28.10506        -54.78232   0.04666    90   %  0.9276
      91     -83.12939     28.34591        -54.78348   0.04549    91   %  0.9401
      92     -83.36781     28.58316        -54.78465   0.04433    92   %  0.9526
      93     -83.60277     28.81697        -54.78580   0.04318    93   %  0.9652
      94     -83.83518     29.04823        -54.78695   0.04203    94   %  0.9780
      95     -84.06123     29.27314        -54.78809   0.04089    95   %  0.9906
      96     -84.28569     29.49649        -54.78920   0.03978    96   %  1.0034
      97     -84.50740     29.71708        -54.79032   0.03866    97   %  1.0162
      98     -84.72506     29.93362        -54.79144   0.03753    98   %  1.0291
      99     -84.94287     30.15031        -54.79255   0.03642    99   %  1.0422
     100     -85.15704     30.36334        -54.79370   0.03527   100   %  1.0554
     101     -85.36828     30.57343        -54.79485   0.03413   101   %  1.0687
     102     -85.57670     30.78070        -54.79600   0.03297   102   %  1.0821
     103     -85.78130     30.98413        -54.79717   0.03181   103   %  1.0955
     104     -85.98091     31.18257        -54.79833   0.03064   104   %  1.1089
     105     -86.17916     31.37966        -54.79949   0.02948   105   %  1.1225
     106     -86.37234     31.57164        -54.80070   0.02828   106   %  1.1361
     107     -86.56070     31.75881        -54.80189   0.02709   107   %  1.1497
     108     -86.74469     31.94161        -54.80309   0.02589   108   %  1.1634
     109     -86.92733     32.12303        -54.80430   0.02468   109   %  1.1773
     110     -87.10347     32.29790        -54.80556   0.02341   110   %  1.1912
     111     -87.27565     32.46883        -54.80681   0.02216   111   %  1.2051
     112     -87.44158     32.63348        -54.80809   0.02088   112   %  1.2191
     113     -87.60222     32.79286        -54.80936   0.01962   113   %  1.2330
     114     -87.75790     32.94726        -54.81064   0.01834   114   %  1.2471
     115     -87.91026     33.09832        -54.81194   0.01703   115   %  1.2614
     116     -88.05450     33.24119        -54.81330   0.01567   116   %  1.2756
     117     -88.19323     33.37862        -54.81461   0.01437   117   %  1.2898
     118     -88.32575     33.50980        -54.81595   0.01303   118   %  1.3041
     119     -88.45274     33.63545        -54.81729   0.01169   119   %  1.3185
     120     -88.57347     33.75481        -54.81865   0.01032   120   %  1.3330
     121     -88.68630     33.86627        -54.82003   0.00895   121   %  1.3474
     122     -88.79294     33.97157        -54.82137   0.00761   122   %  1.3619
     123     -88.89203     34.06930        -54.82273   0.00625   123   %  1.3763
     124     -88.98423     34.16017        -54.82407   0.00491   124   %  1.3908
     125     -89.06983     34.24442        -54.82541   0.00356   125   %  1.4054
     126     -89.14798     34.32121        -54.82677   0.00220   126   %  1.4199
     127     -89.21928     34.39117        -54.82812   0.00086   127   %  1.4344
     128     -89.28348     34.45400        -54.82948  -0.00050   128   %  1.4490
     129     -89.34070     34.50986        -54.83084  -0.00186   129   %  1.4637
     130     -89.39107     34.55885        -54.83222  -0.00324   130   %  1.4784
     131     -89.43425     34.60062        -54.83364  -0.00466   131   %  1.4932
     132     -89.47024     34.63530        -54.83494  -0.00596   132   %  1.5079
     133     -89.49405     34.66124        -54.83282  -0.00384   133   %  1.5212
     134     -89.49550     34.68998        -54.80552   0.02346   134   %  1.5264
     135     -89.50724     34.73758        -54.76966   0.05931   135   %  1.5290
     136     -89.50261     34.79476        -54.70785   0.12113   136   %  1.5321
     137     -89.51492     34.84674        -54.66818   0.16079   137   %  1.5342
     138     -89.50851     34.90626        -54.60225   0.22673   138   %  1.5374
     139     -89.52139     34.95730        -54.56409   0.26489   139   %  1.5389
     140     -89.51235     35.01759        -54.49476   0.33421   140   %  1.5421
     141     -89.52658     35.06941        -54.45716   0.37182   141   %  1.5432
     142     -89.51562     35.12956        -54.38606   0.44292   142   %  1.5462
     143     -89.53058     35.18115        -54.34943   0.47954   143   %  1.5469
     144     -89.51819     35.24098        -54.27721   0.55177   144   %  1.5498
     145     -89.53369     35.29255        -54.24113   0.58784   145   %  1.5503
     146     -89.51986     35.35312        -54.16674   0.66224   146   %  1.5530
     147     -89.53618     35.40508        -54.13110   0.69788   147   %  1.5532
     148     -89.52155     35.46510        -54.05645   0.77252   148   %  1.5558
     149     -89.53799     35.51732        -54.02068   0.80830   149   %  1.5558
     150     -89.52255     35.57837        -53.94418   0.88479   150   %  1.5583
     151     -89.53945     35.63163        -53.90782   0.92115   151   %  1.5581
     152     -89.52326     35.69373        -53.82953   0.99944   152   %  1.5605
     153     -89.54076     35.74603        -53.79472   1.03426   153   %  1.5602
     154     -89.52306     35.80890        -53.71416   1.11482   154   %  1.5624
     155     -89.54177     35.86133        -53.68045   1.14853   155   %  1.5620
     156     -89.52322     35.92396        -53.59926   1.22971   156   %  1.5641
     157     -89.54252     35.97610        -53.56642   1.26256   157   %  1.5636
     158     -89.52241     36.04075        -53.48166   1.34732   158   %  1.5656
     159     -89.54312     36.09456        -53.44856   1.38041   159   %  1.5650
     160     -89.52272     36.15908        -53.36364   1.46534   160   %  1.5669
     161     -89.54356     36.21234        -53.33122   1.49776   161   %  1.5662
     162     -89.52279     36.27688        -53.24590   1.58307   162   %  1.5681
     163     -89.54392     36.32961        -53.21430   1.61467   163   %  1.5673
     164     -89.52223     36.39510        -53.12713   1.70184   164   %  1.5691
     165     -89.54419     36.44837        -53.09583   1.73315   165   %  1.5683
     166     -89.52156     36.51517        -53.00638   1.82260   166   %  1.5699
     167     -89.54440     36.56857        -52.97584   1.85314   167   %  1.5691
     168     -89.51977     36.63859        -52.88118   1.94779   168   %  1.5707
     169     -89.54452     36.69292        -52.85159   1.97738   169   %  1.5698
     170     -89.51751     36.76669        -52.75082   2.07816   170   %  1.5714
     171     -89.54451     36.82228        -52.72223   2.10675   171   %  1.5705
     172     -89.51637     36.89740        -52.61897   2.21001   172   %  1.5720
     173     -89.54452     36.95343        -52.59109   2.23788   173   %  1.5710
     174     -89.51416     37.03240        -52.48176   2.34722   174   %  1.5726
     175     -89.54429     37.08944        -52.45486   2.37412   175   %  1.5715
     176     -89.51256     37.17113        -52.34142   2.48755   176   %  1.5730
     177     -89.54405     37.22794        -52.31611   2.51286   177   %  1.5719
     178     -89.50922     37.31534        -52.19387   2.63510   178   %  1.5734
     179     -89.54365     37.37498        -52.16866   2.66031   179   %  1.5723
     180     -89.50592     37.46895        -52.03697   2.79201   180   %  1.5737
     181     -89.54288     37.52969        -52.01320   2.81578   181   %  1.5726
     182     -89.50390     37.62800        -51.87590   2.95308   182   %  1.5740
     183     -89.54241     37.68890        -51.85351   2.97547   183   %  1.5728
     184     -89.50151     37.79133        -51.71019   3.11879   184   %  1.5742
     185     -89.54175     37.85310        -51.68865   3.14033   185   %  1.5730
     186     -89.49956     37.95995        -51.53961   3.28937   186   %  1.5743
     187     -89.54138     38.02295        -51.51844   3.31054   187   %  1.5732
     188     -89.49690     38.13498        -51.36192   3.46706   188   %  1.5744
     189     -89.54026     38.19831        -51.34195   3.48703   189   %  1.5733
     190     -89.49063     38.32515        -51.16547   3.66350   190   %  1.5746
     191     -89.53826     38.39196        -51.14630   3.68267   191   %  1.5734
     192     -89.48344     38.53737        -50.94607   3.88291   192   %  1.5747
     193     -89.53553     38.60714        -50.92839   3.90059   193   %  1.5735
     194     -89.47939     38.76771        -50.71168   4.11729   194   %  1.5747
     195     -89.53410     38.83877        -50.69533   4.13365   195   %  1.5734
     196     -89.47442     39.01139        -50.46303   4.36594   196   %  1.5747
     197     -89.53210     39.08487        -50.44722   4.38175   197   %  1.5734
     198     -89.46835     39.27595        -50.19239   4.63658   198   %  1.5746
     199     -89.52933     39.35188        -50.17745   4.65152   199   %  1.5734
     200     -89.46486     39.56003        -49.90483   4.92414   200   %  1.5745
     201     -89.52734     39.63605        -49.89128   4.93769   201   %  1.5732
     202     -89.45426     39.87279        -49.58146   5.24751   202   %  1.5745
     203     -89.52228     39.95410        -49.56817   5.26080   203   %  1.5732
     204     -89.44385     40.23492        -49.20893   5.62005   204   %  1.5744
     205     -89.51710     40.32034        -49.19676   5.63222   205   %  1.5731
     206     -89.42714     40.65969        -48.76745   6.06153   206   %  1.5744
     207     -89.50828     40.75233        -48.75595   6.07303   207   %  1.5730
     208     -89.54308     40.76207        -48.78101   6.04797   208   %  1.5717
     209     -89.50910     40.79673        -48.71237   6.11661   209   %  1.5730
     210     -89.54357     40.85448        -48.68909   6.13988   210   %  1.5718
     211     -89.50789     40.93915        -48.56875   6.26023   211   %  1.5729


           POTENTIAL ENERGY HAS STOPPED DROPPING


 **********************
 *                    *
 * JOB ENDED NORMALLY *
 *                    *
 **********************



 TOTAL JOB TIME:             0.11 SECONDS

 == MOPAC DONE ==
