 *******************************************************************************
 ** Site#:  999         For non-commercial use only           Version 21.129  **
 *******************************************************************************
 ** Cite this program as: MOPAC2016, Version: 21.129 , James J. P. Stewart,   **
 ** Stewart Computational Chemistry, web-site: HTTP://OpenMOPAC.net.          **
 *******************************************************************************
 **                                                                           **
 **                                MOPAC2016                                  **
 **                                                                           **
 *******************************************************************************

                              PM7 CALCULATION RESULTS

 *******************************************************************************
 *  CALCULATION DONE:                                Sun Nov 20 12:22:50 2022  *
 *  PM7        - The PM7 Hamiltonian to be used
 *
 *
 *
 *                 CHARGE ON SYSTEM = 0
 *
 *
 *
 *  IRC=N      - INTRINSIC REACTION COORDINATE  1 DEFINED
 *  PRECISE    - TIGHTER CRITERIA TO BE USED
 *  THREADS=1  - MULTI-THREADING NOT USED
 *  T=         - A TIME OF 172800.0 SECONDS REQUESTED
 *  DUMP=N     - RESTART FILE WRITTEN EVERY 7200.0 SECONDS REQUESTED
 *  CYCLES=    - DO A MAXIMUM OF 5000 STEPS
 *  OLDENS     - INITIAL DENSITY MATRIX READ OFF DISK
 *******************************************************************************
   pm7 threads=1 charge=0 irc= 1 oldens precise cycles=5000
 title
 title
   ATOM   CHEMICAL          X               Y               Z
  NUMBER   SYMBOL      (ANGSTROMS)     (ANGSTROMS)     (ANGSTROMS)
 
     1       C          0.15869148  *  -0.15979417  *  -0.06711290  *
     2       O          0.09808892  *   0.05100748  *   1.17682449  *
     3       O          1.15821264  *  -0.90243771  *  -0.53229571  *
     4       H         -0.84308612  *   0.58119702  *   0.37322410  *
     5       H          1.14089947  *  -1.02332214  *  -1.50573828  *
 


          CARTESIAN COORDINATES 

    NO.       ATOM           X           Y           Z

     1         C          0.1587     -0.1598     -0.0671
     2         O          0.0981      0.0510      1.1768
     3         O          1.1582     -0.9024     -0.5323
     4         H         -0.8431      0.5812      0.3732
     5         H          1.1409     -1.0233     -1.5057

 General Reference for PM7:
 "Optimization of Parameters for Semiempirical Methods VI: More Modifications to the 
 NDDO Approximations and Re-optimization of Parameters", J. J. P. Stewart, J. Mol. Mod., 1:32, 19 (2013)
 https://link.springer.com/article/10.1007/s00894-012-1667-x

           Empirical Formula: C H2 O2  =     5 atoms



      MOLECULAR POINT GROUP   :   Cs  


      RHF CALCULATION, NO. OF DOUBLY OCCUPIED LEVELS = 9



          HEAT OF FORMATION =     -17.612412 KCALS/MOLE


          GRADIENT NORM =   0.00937

          MOLECULAR WEIGHT =   46.03


          ESTIMATED TIME TO COMPLETE CALCULATION =        0.00 SECONDS

    FOR POINT-GROUP Cs   THERE ARE   2 UNIQUE SYMMETRY FUNCTIONS.

 STEP:   1 TIME =     0.00 SECS, INTEGRAL =      0.00 TIME LEFT: 172800.00
 STEP:   2 TIME =     0.00 SECS, INTEGRAL =      0.00 TIME LEFT: 172800.00
 STEP:   3 TIME =     0.00 SECS, INTEGRAL =      0.00 TIME LEFT: 172800.00
 STEP:   4 TIME =     0.00 SECS, INTEGRAL =      0.01 TIME LEFT: 172799.99
 STEP:   5 TIME =     0.00 SECS, INTEGRAL =      0.01 TIME LEFT: 172799.99
 STEP:   6 TIME =     0.00 SECS, INTEGRAL =      0.01 TIME LEFT: 172799.99
 STEP:   7 TIME =     0.00 SECS, INTEGRAL =      0.02 TIME LEFT: 172799.98
 STEP:   8 TIME =     0.00 SECS, INTEGRAL =      0.02 TIME LEFT: 172799.98
 STEP:   9 TIME =     0.00 SECS, INTEGRAL =      0.02 TIME LEFT: 172799.98
 STEP:  10 TIME =     0.00 SECS, INTEGRAL =      0.02 TIME LEFT: 172799.98
 STEP:  11 TIME =     0.00 SECS, INTEGRAL =      0.02 TIME LEFT: 172799.98
 STEP:  12 TIME =     0.00 SECS, INTEGRAL =      0.02 TIME LEFT: 172799.98
 STEP:  13 TIME =     0.00 SECS, INTEGRAL =      0.03 TIME LEFT: 172799.97
 STEP:  14 TIME =     0.00 SECS, INTEGRAL =      0.03 TIME LEFT: 172799.97
 STEP:  15 TIME =     0.00 SECS, INTEGRAL =      0.03 TIME LEFT: 172799.97
  Stopping critera: r_ij>5*r_ij(0)
 
           INITIAL VELOCITY IN DRC (Angstroms/Femtosecond)
        -0.07082         0.03130        -0.00000
        -0.00140        -0.04261         0.00001
         0.00102         0.01256        -0.00000
         0.84166         0.08438        -0.00003
         0.00842         0.01974        -0.00001
 
  Deltat    =   0.24 fs
  Maxcyc    =      5000
  Jloop_lim =      5000
 
  Initial distance matrix
  Bond#     i     j    Ini_value(A)
      1     1     2          1.263
      2     1     3          1.329
      3     1     4          1.322
      4     1     5          1.944
      5     2     3          2.226
      6     2     4          1.346
      7     2     5          3.072
      8     3     4          2.651
      9     3     5          0.981
     10     4     5          3.169
 
 


     POINT   POTENTIAL  +  ENERGY LOST   =   TOTAL      ERROR    REF%   MOVEMENT
       1     -17.61241      0.00000        -17.61241   0.00000     1   %  0.0000
       2     -17.61285      0.00000        -17.61285  -0.00044     2   %  0.0017
       3     -17.61415      0.00000        -17.61415  -0.00174     3   %  0.0035
       4     -17.63611      0.00000        -17.63611  -0.02370     4   %  0.0129
       5     -17.68339      0.00000        -17.68339  -0.04727     5   %  0.0224
       6     -17.75666      0.13346        -17.62320   0.01292     6   %  0.0320
       7     -17.85171      0.23896        -17.61276   0.02336     7   %  0.0413
       8     -17.97364      0.36380        -17.60984   0.02628     8   %  0.0508
       9     -18.12064      0.51341        -17.60723   0.02888     9   %  0.0604
      10     -18.29024      0.68587        -17.60437   0.03175    10   %  0.0699
      11     -18.48280      0.88139        -17.60140   0.03471    11   %  0.0794
      12     -18.69883      1.10046        -17.59837   0.03774    12   %  0.0889
      13     -18.93669      1.34141        -17.59527   0.04084    13   %  0.0984
      14     -19.19495      1.60279        -17.59217   0.04395    14   %  0.1079
      15     -19.47527      1.88617        -17.58910   0.04702    15   %  0.1175
      16     -19.77680      2.19076        -17.58603   0.05008    16   %  0.1270
      17     -20.09714      2.51415        -17.58300   0.05312    17   %  0.1365
      18     -20.43468      2.85465        -17.58003   0.05609    18   %  0.1460
      19     -20.79067      3.21351        -17.57715   0.05896    19   %  0.1555
      20     -21.16131      3.58696        -17.57435   0.06176    20   %  0.1650
      21     -21.54888      3.97721        -17.57167   0.06445    21   %  0.1744
      22     -21.95179      4.38272        -17.56907   0.06705    22   %  0.1839
      23     -22.37476      4.80819        -17.56657   0.06955    23   %  0.1934
      24     -22.80693      5.24282        -17.56411   0.07200    24   %  0.2029
      25     -23.25920      5.69740        -17.56180   0.07432    25   %  0.2124
      26     -23.72592      6.16639        -17.55954   0.07658    26   %  0.2221
      27     -24.20096      6.64359        -17.55737   0.07874    27   %  0.2316
      28     -24.68299      7.12764        -17.55535   0.08076    28   %  0.2410
      29     -25.17720      7.62372        -17.55348   0.08264    29   %  0.2505
      30     -25.68053      8.12882        -17.55171   0.08441    30   %  0.2600
      31     -26.19572      8.64568        -17.55005   0.08607    31   %  0.2696
      32     -26.71763      9.16914        -17.54849   0.08763    32   %  0.2791
      33     -27.25035      9.70331        -17.54704   0.08907    33   %  0.2886
      34     -27.79203     10.24633        -17.54570   0.09042    34   %  0.2982
      35     -28.33860     10.79414        -17.54445   0.09166    35   %  0.3078
      36     -28.88892     11.34559        -17.54333   0.09279    36   %  0.3174
      37     -29.44709     11.90477        -17.54232   0.09380    37   %  0.3270
      38     -30.00839     12.46698        -17.54141   0.09470    38   %  0.3366
      39     -30.56775     13.02714        -17.54061   0.09550    39   %  0.3461
      40     -31.13883     13.59890        -17.53993   0.09619    40   %  0.3557
      41     -31.70587     14.16654        -17.53933   0.09678    41   %  0.3652
      42     -32.27500     14.73615        -17.53885   0.09727    42   %  0.3748
      43     -32.84461     15.30615        -17.53846   0.09766    43   %  0.3843
      44     -33.42080     15.88265        -17.53816   0.09796    44   %  0.3940
      45     -33.99845     16.46050        -17.53795   0.09817    45   %  0.4036
      46     -34.57451     17.03668        -17.53783   0.09829    46   %  0.4133
      47     -35.14899     17.61119        -17.53780   0.09832    47   %  0.4229
      48     -35.86476     18.32701        -17.53774   0.09837    48   %  0.4349
      49     -36.54602     19.00808        -17.53793   0.09818    49   %  0.4464
      50     -37.11519     19.57692        -17.53827   0.09784    50   %  0.4561
      51     -37.67741     20.13882        -17.53859   0.09753    51   %  0.4657
      52     -38.24082     20.70185        -17.53897   0.09715    52   %  0.4754
      53     -38.79805     21.25891        -17.53914   0.09698    53   %  0.4850
      54     -39.35338     21.81392        -17.53946   0.09666    54   %  0.4946
      55     -39.90326     22.36339        -17.53987   0.09625    55   %  0.5043
      56     -40.44603     22.90569        -17.54034   0.09577    56   %  0.5139
      57     -40.98520     23.44433        -17.54087   0.09524    57   %  0.5235
      58     -41.52330     23.98185        -17.54145   0.09467    58   %  0.5332
      59     -42.05651     24.51442        -17.54210   0.09402    59   %  0.5429
      60     -42.58531     25.04251        -17.54280   0.09331    60   %  0.5527
      61     -43.10886     25.56530        -17.54356   0.09256    61   %  0.5624
      62     -43.61804     26.07367        -17.54437   0.09175    62   %  0.5720
      63     -44.12548     26.58029        -17.54519   0.09092    63   %  0.5817
      64     -44.62580     27.07973        -17.54607   0.09004    64   %  0.5914
      65     -45.12261     27.57562        -17.54699   0.08913    65   %  0.6012
      66     -45.60561     28.05765        -17.54796   0.08816    66   %  0.6108
      67     -46.09038     28.54145        -17.54893   0.08719    67   %  0.6206
      68     -46.56582     29.01586        -17.54996   0.08615    68   %  0.6304
      69     -47.03497     29.48395        -17.55102   0.08509    69   %  0.6401
      70     -47.49237     29.94025        -17.55211   0.08400    70   %  0.6498
      71     -47.94912     30.39591        -17.55321   0.08291    71   %  0.6597
      72     -48.39516     30.84080        -17.55436   0.08176    72   %  0.6695
      73     -48.83716     31.28165        -17.55551   0.08060    73   %  0.6793
      74     -49.26473     31.70802        -17.55671   0.07941    74   %  0.6890
      75     -49.68804     32.13016        -17.55788   0.07823    75   %  0.6989
      76     -50.10144     32.54235        -17.55909   0.07702    76   %  0.7086
      77     -50.50771     32.94741        -17.56030   0.07581    77   %  0.7184
      78     -50.90617     33.34465        -17.56152   0.07459    78   %  0.7282
      79     -51.30215     33.73939        -17.56276   0.07336    79   %  0.7381
      80     -51.68610     34.12207        -17.56403   0.07208    80   %  0.7480
      81     -52.05947     34.49418        -17.56529   0.07083    81   %  0.7577
      82     -52.43164     34.86511        -17.56653   0.06958    82   %  0.7677
      83     -52.78991     35.22209        -17.56782   0.06829    83   %  0.7775
      84     -53.14220     35.57313        -17.56908   0.06704    84   %  0.7873
      85     -53.48575     35.91541        -17.57034   0.06577    85   %  0.7972
      86     -53.82577     36.25416        -17.57160   0.06451    86   %  0.8072
      87     -54.15594     36.58305        -17.57289   0.06322    87   %  0.8171
      88     -54.47902     36.90485        -17.57417   0.06194    88   %  0.8270
      89     -54.79633     37.22088        -17.57545   0.06066    89   %  0.8371
      90     -55.10137     37.52463        -17.57674   0.05937    90   %  0.8470
      91     -55.39895     37.82095        -17.57800   0.05812    91   %  0.8569
      92     -55.69308     38.11383        -17.57924   0.05687    92   %  0.8669
      93     -55.97850     38.39798        -17.58052   0.05560    93   %  0.8770
      94     -56.25765     38.67586        -17.58178   0.05433    94   %  0.8870
      95     -56.52621     38.94316        -17.58305   0.05307    95   %  0.8970
      96     -56.78928     39.20500        -17.58428   0.05183    96   %  0.9071
      97     -57.04484     39.45932        -17.58552   0.05059    97   %  0.9171
      98     -57.29228     39.70553        -17.58675   0.04936    98   %  0.9272
      99     -57.53719     39.94923        -17.58797   0.04815    99   %  0.9374
     100     -57.77137     40.18216        -17.58921   0.04690   100   %  0.9475
     101     -58.00115     40.41073        -17.59042   0.04569   101   %  0.9577
     102     -58.22524     40.63360        -17.59164   0.04447   102   %  0.9680
     103     -58.44235     40.84948        -17.59287   0.04325   103   %  0.9783
     104     -58.65202     41.05793        -17.59408   0.04203   104   %  0.9886
     105     -58.85511     41.25983        -17.59528   0.04083   105   %  0.9989
     106     -59.05304     41.45657        -17.59647   0.03965   106   %  1.0093
     107     -59.24272     41.64506        -17.59765   0.03846   107   %  1.0196
     108     -59.42776     41.82895        -17.59881   0.03730   108   %  1.0300
     109     -59.60671     42.00674        -17.59997   0.03614   109   %  1.0404
     110     -59.77920     42.17807        -17.60112   0.03499   110   %  1.0509
     111     -59.94600     42.34375        -17.60226   0.03386   111   %  1.0613
     112     -60.10522     42.50185        -17.60338   0.03274   112   %  1.0717
     113     -60.26101     42.65655        -17.60446   0.03166   113   %  1.0822
     114     -60.40966     42.80411        -17.60555   0.03056   114   %  1.0926
     115     -60.55366     42.94705        -17.60661   0.02951   115   %  1.1031
     116     -60.69244     43.08478        -17.60765   0.02846   116   %  1.1136
     117     -60.82669     43.21801        -17.60868   0.02744   117   %  1.1241
     118     -60.95748     43.34778        -17.60970   0.02642   118   %  1.1348
     119     -61.08284     43.47213        -17.61071   0.02540   119   %  1.1454
     120     -61.20530     43.59360        -17.61170   0.02441   120   %  1.1562
     121     -61.32170     43.70901        -17.61269   0.02343   121   %  1.1668
     122     -61.43459     43.82096        -17.61363   0.02248   122   %  1.1774
     123     -61.54434     43.92978        -17.61456   0.02156   123   %  1.1882
     124     -61.65171     44.03623        -17.61548   0.02064   124   %  1.1991
     125     -61.75505     44.13866        -17.61640   0.01972   125   %  1.2100
     126     -61.85463     44.23735        -17.61728   0.01883   126   %  1.2208
     127     -61.95224     44.33410        -17.61814   0.01798   127   %  1.2318
     128     -62.04756     44.42857        -17.61899   0.01713   128   %  1.2428
     129     -62.13900     44.51917        -17.61983   0.01629   129   %  1.2537
     130     -62.22919     44.60857        -17.62063   0.01549   130   %  1.2648
     131     -62.31661     44.69518        -17.62143   0.01469   131   %  1.2759
     132     -62.40122     44.77901        -17.62221   0.01391   132   %  1.2869
     133     -62.48423     44.86127        -17.62296   0.01315   133   %  1.2980
     134     -62.56508     44.94136        -17.62372   0.01240   134   %  1.3092
     135     -62.64504     45.02057        -17.62447   0.01164   135   %  1.3207
     136     -62.72239     45.09714        -17.62525   0.01086   136   %  1.3321
     137     -62.79705     45.17102        -17.62603   0.01008   137   %  1.3436
     138     -62.86883     45.24201        -17.62682   0.00930   138   %  1.3552
     139     -62.93846     45.31084        -17.62762   0.00850   139   %  1.3671
     140     -63.00486     45.37640        -17.62845   0.00766   140   %  1.3791
     141     -63.06716     45.43785        -17.62931   0.00680   141   %  1.3911
     142     -63.12533     45.49515        -17.63018   0.00593   142   %  1.4032
     143     -63.17965     45.54857        -17.63107   0.00504   143   %  1.4156
     144     -63.22970     45.59770        -17.63200   0.00412   144   %  1.4283
     145     -63.27475     45.64176        -17.63298   0.00313   145   %  1.4410
     146     -63.31524     45.68145        -17.63379   0.00232   146   %  1.4541
     147     -63.34549     45.71250        -17.63299   0.00312   147   %  1.4659
     148     -63.35489     45.74810        -17.60678   0.02933   148   %  1.4743
     149     -63.37102     45.79516        -17.57586   0.06025   149   %  1.4770
     150     -63.36630     45.85999        -17.50631   0.12980   150   %  1.4811
     151     -63.38460     45.91082        -17.47378   0.16234   151   %  1.4833
     152     -63.37491     45.98517        -17.38974   0.24637   152   %  1.4878
     153     -63.39666     46.03659        -17.36008   0.27604   153   %  1.4896
     154     -63.38135     46.11463        -17.26672   0.36940   154   %  1.4941
     155     -63.40653     46.16788        -17.23865   0.39747   155   %  1.4955
     156     -63.38512     46.25279        -17.13234   0.50378   156   %  1.5001
     157     -63.41438     46.30845        -17.10593   0.53019   157   %  1.5012
     158     -63.38704     46.40146        -16.98557   0.65054   158   %  1.5058
     159     -63.42044     46.45929        -16.96115   0.67497   159   %  1.5065
     160     -63.38766     46.56077        -16.82689   0.80922   160   %  1.5112
     161     -63.42491     46.62043        -16.80448   0.83163   161   %  1.5117
     162     -63.38541     46.73491        -16.65050   0.98562   162   %  1.5165
     163     -63.42771     46.79832        -16.62939   1.00672   163   %  1.5166
     164     -63.38412     46.92387        -16.46025   1.17587   164   %  1.5214
     165     -63.42969     46.98868        -16.44101   1.19510   165   %  1.5212
     166     -63.38127     47.12657        -16.25470   1.38141   166   %  1.5260
     167     -63.43058     47.19413        -16.23645   1.39967   167   %  1.5256
     168     -63.37562     47.35027        -16.02535   1.61076   168   %  1.5303
     169     -63.42968     47.42159        -16.00810   1.62802   169   %  1.5297
     170     -63.36966     47.60033        -15.76933   1.86679   170   %  1.5344
     171     -63.42790     47.67429        -15.75361   1.88250   171   %  1.5335
     172     -63.36212     47.87971        -15.48241   2.15371   172   %  1.5382
     173     -63.42515     47.95740        -15.46775   2.16836   173   %  1.5371
     174     -63.35447     48.19207        -15.16240   2.47372   174   %  1.5417
     175     -63.42142     48.27223        -15.14919   2.48693   175   %  1.5404
     176     -63.34353     48.54796        -14.79557   2.84054   176   %  1.5450
     177     -63.41613     48.63291        -14.78321   2.85290   177   %  1.5435
     178     -63.32827     48.96572        -14.36255   3.27356   178   %  1.5481
     179     -63.40797     49.05684        -14.35113   3.28498   179   %  1.5464
     180     -63.44228     49.06523        -14.37705   3.25906   180   %  1.5454
     181     -63.41128     49.09917        -14.31211   3.32400   181   %  1.5477
     182     -63.44333     49.15492        -14.28841   3.34770   182   %  1.5463
     183     -63.40956     49.23530        -14.17426   3.46185   183   %  1.5484
     184     -63.44316     49.29350        -14.14966   3.48646   184   %  1.5469
     185     -63.40802     49.38146        -14.02656   3.60955   185   %  1.5491
     186     -63.44285     49.44045        -14.00240   3.63372   186   %  1.5476
     187     -63.40528     49.53356        -13.87173   3.76439   187   %  1.5499
     188     -63.44242     49.59496        -13.84745   3.78866   188   %  1.5483
     189     -63.40322     49.69220        -13.71102   3.92510   189   %  1.5506
     190     -63.44187     49.75427        -13.68760   3.94852   190   %  1.5490
     191     -63.40051     49.85692        -13.54360   4.09252   191   %  1.5513
     192     -63.44105     49.91983        -13.52122   4.11490   192   %  1.5497
     193     -63.39935     50.02513        -13.37421   4.26190   193   %  1.5520
     194     -63.44080     50.08829        -13.35251   4.28361   194   %  1.5503
     195     -63.39761     50.19610        -13.20151   4.43460   195   %  1.5526
     196     -63.44027     50.26022        -13.18005   4.45607   196   %  1.5509
     197     -63.39445     50.37489        -13.01956   4.61655   197   %  1.5533
     198     -63.43901     50.43983        -12.99918   4.63693   198   %  1.5516
     199     -63.39223     50.56102        -12.83121   4.80491   199   %  1.5538
     200     -63.43858     50.62736        -12.81122   4.82490   200   %  1.5521
     201     -63.39074     50.75064        -12.64010   4.99601   201   %  1.5544
     202     -63.43787     50.81709        -12.62078   5.01534   202   %  1.5526
     203     -63.38630     50.95050        -12.43580   5.20031   203   %  1.5549
     204     -63.43621     51.01922        -12.41699   5.21913   204   %  1.5532
     205     -63.38513     51.15871        -12.22642   5.40970   205   %  1.5554
     206     -63.43570     51.22694        -12.20876   5.42736   206   %  1.5536
     207     -63.38167     51.37284        -12.00884   5.62728   207   %  1.5559
     208     -63.43416     51.44251        -11.99165   5.64447   208   %  1.5541
     209     -63.37814     51.59971        -11.77843   5.85769   209   %  1.5563
     210     -63.43300     51.67140        -11.76161   5.87451   210   %  1.5545
     211     -63.37692     51.83296        -11.54396   6.09216   211   %  1.5567
     212     -63.43220     51.90413        -11.52807   6.10804   212   %  1.5549
     213     -63.37220     52.07706        -11.29515   6.34097   213   %  1.5572
     214     -63.43003     52.15042        -11.27962   6.35650   214   %  1.5554
     215     -63.37077     52.33339        -11.03739   6.59873   215   %  1.5575
     216     -63.42995     52.40779        -11.02216   6.61395   216   %  1.5557
     217     -63.36878     52.59224        -10.77654   6.85958   217   %  1.5579
     218     -63.42869     52.66698        -10.76171   6.87441   218   %  1.5560
     219     -63.36559     52.86329        -10.50230   7.13381   219   %  1.5582
     220     -63.42727     52.93947        -10.48780   7.14832   220   %  1.5564


           POTENTIAL ENERGY HAS STOPPED DROPPING


 **********************
 *                    *
 * JOB ENDED NORMALLY *
 *                    *
 **********************



 TOTAL JOB TIME:             0.12 SECONDS

 == MOPAC DONE ==
