 *******************************************************************************
 ** Site#:  999         For non-commercial use only           Version 21.129  **
 *******************************************************************************
 ** Cite this program as: MOPAC2016, Version: 21.129 , James J. P. Stewart,   **
 ** Stewart Computational Chemistry, web-site: HTTP://OpenMOPAC.net.          **
 *******************************************************************************
 **                                                                           **
 **                                MOPAC2016                                  **
 **                                                                           **
 *******************************************************************************

                              PM7 CALCULATION RESULTS

 *******************************************************************************
 *  CALCULATION DONE:                                Sun Nov 20 12:22:50 2022  *
 *  PM7        - The PM7 Hamiltonian to be used
 *
 *
 *
 *                 CHARGE ON SYSTEM = 0
 *
 *
 *
 *  IRC=N      - INTRINSIC REACTION COORDINATE -1 DEFINED
 *  PRECISE    - TIGHTER CRITERIA TO BE USED
 *  THREADS=1  - MULTI-THREADING NOT USED
 *  T=         - A TIME OF 172800.0 SECONDS REQUESTED
 *  DUMP=N     - RESTART FILE WRITTEN EVERY 7200.0 SECONDS REQUESTED
 *  CYCLES=    - DO A MAXIMUM OF 5000 STEPS
 *  OLDENS     - INITIAL DENSITY MATRIX READ OFF DISK
 *******************************************************************************
   pm7 threads=1 charge=0 irc=-1 oldens precise cycles=5000
 title
 title
   ATOM   CHEMICAL          X               Y               Z
  NUMBER   SYMBOL      (ANGSTROMS)     (ANGSTROMS)     (ANGSTROMS)
 
     1       C          0.53364154  *   0.11839862  *   0.28741876  *
     2       O          0.23149086  *   0.63402620  *   1.29914712  *
     3       O          1.44367745  *   0.02230328  *  -0.61027048  *
     4       H         -0.24387265  *  -0.77593897  *  -0.38644344  *
     5       H          0.52813812  *  -0.81572386  *  -1.08660557  *
 


          CARTESIAN COORDINATES 

    NO.       ATOM           X           Y           Z

     1         C          0.5336      0.1184      0.2874
     2         O          0.2315      0.6340      1.2991
     3         O          1.4437      0.0223     -0.6103
     4         H         -0.2439     -0.7759     -0.3864
     5         H          0.5281     -0.8157     -1.0866

 General Reference for PM7:
 "Optimization of Parameters for Semiempirical Methods VI: More Modifications to the 
 NDDO Approximations and Re-optimization of Parameters", J. J. P. Stewart, J. Mol. Mod., 1:32, 19 (2013)
 https://link.springer.com/article/10.1007/s00894-012-1667-x

           Empirical Formula: C H2 O2  =     5 atoms



      MOLECULAR POINT GROUP   :   Cs  


      RHF CALCULATION, NO. OF DOUBLY OCCUPIED LEVELS = 9



          HEAT OF FORMATION =     -20.173038 KCALS/MOLE


          GRADIENT NORM =   0.03873

          MOLECULAR WEIGHT =   46.03


          ESTIMATED TIME TO COMPLETE CALCULATION =        0.00 SECONDS

    FOR POINT-GROUP Cs   THERE ARE   2 UNIQUE SYMMETRY FUNCTIONS.

 STEP:   1 TIME =     0.00 SECS, INTEGRAL =      0.00 TIME LEFT: 172800.00
 STEP:   2 TIME =     0.00 SECS, INTEGRAL =      0.00 TIME LEFT: 172800.00
 STEP:   3 TIME =     0.00 SECS, INTEGRAL =      0.01 TIME LEFT: 172799.99
 STEP:   4 TIME =     0.00 SECS, INTEGRAL =      0.01 TIME LEFT: 172799.99
 STEP:   5 TIME =     0.00 SECS, INTEGRAL =      0.01 TIME LEFT: 172799.99
 STEP:   6 TIME =     0.00 SECS, INTEGRAL =      0.01 TIME LEFT: 172799.99
 STEP:   7 TIME =     0.00 SECS, INTEGRAL =      0.02 TIME LEFT: 172799.98
 STEP:   8 TIME =     0.00 SECS, INTEGRAL =      0.02 TIME LEFT: 172799.98
 STEP:   9 TIME =     0.00 SECS, INTEGRAL =      0.02 TIME LEFT: 172799.98
 STEP:  10 TIME =     0.00 SECS, INTEGRAL =      0.02 TIME LEFT: 172799.98
 STEP:  11 TIME =     0.00 SECS, INTEGRAL =      0.02 TIME LEFT: 172799.98
 STEP:  12 TIME =     0.00 SECS, INTEGRAL =      0.02 TIME LEFT: 172799.98
 STEP:  13 TIME =     0.00 SECS, INTEGRAL =      0.03 TIME LEFT: 172799.97
 STEP:  14 TIME =     0.00 SECS, INTEGRAL =      0.03 TIME LEFT: 172799.97
 STEP:  15 TIME =     0.00 SECS, INTEGRAL =      0.03 TIME LEFT: 172799.97
  Stopping critera: r_ij>5*r_ij(0)
 
           INITIAL VELOCITY IN DRC (Angstroms/Femtosecond)
         0.00813        -0.05657         0.00000
         0.00654         0.00865        -0.00000
        -0.02813        -0.00682         0.00000
         0.33937         0.10532        -0.00004
        -0.09348         0.53969        -0.00005
 
  Deltat    =   0.24 fs
  Maxcyc    =      5000
  Jloop_lim =      5000
 
  Initial distance matrix
  Bond#     i     j    Ini_value(A)
      1     1     2          1.175
      2     1     3          1.282
      3     1     4          1.363
      4     1     5          1.661
      5     2     3          2.343
      6     2     4          2.248
      7     2     5          2.807
      8     3     4          1.880
      9     3     5          1.329
     10     4     5          1.043
 
 


     POINT   POTENTIAL  +  ENERGY LOST   =   TOTAL      ERROR    REF%   MOVEMENT
       1     -20.17304      0.00000        -20.17304   0.00000     1   %  0.0000
       2     -20.17394      0.00000        -20.17394  -0.00090     2   %  0.0023
       3     -20.17668      0.00000        -20.17668  -0.00364     3   %  0.0046
       4     -20.22356      0.00000        -20.22356  -0.04687     4   %  0.0168
       5     -20.32754      0.21518        -20.11237   0.06431     5   %  0.0293
       6     -20.48342      0.38891        -20.09450   0.08218     6   %  0.0415
       7     -20.70016      0.60933        -20.09083   0.08585     7   %  0.0539
       8     -20.97253      0.88579        -20.08673   0.08995     8   %  0.0662
       9     -21.30442      1.22256        -20.08186   0.09482     9   %  0.0786
      10     -21.68778      1.61169        -20.07609   0.10059    10   %  0.0908
      11     -22.13243      2.06247        -20.06996   0.10672    11   %  0.1033
      12     -22.63500      2.57173        -20.06327   0.11341    12   %  0.1157
      13     -23.18334      3.12719        -20.05615   0.12054    13   %  0.1280
      14     -23.78197      3.73297        -20.04900   0.12768    14   %  0.1403
      15     -24.43373      4.39193        -20.04180   0.13488    15   %  0.1527
      16     -25.12766      5.09317        -20.03450   0.14218    16   %  0.1650
      17     -25.86374      5.83640        -20.02735   0.14933    17   %  0.1773
      18     -26.64102      6.62065        -20.02037   0.15631    18   %  0.1895
      19     -27.46184      7.44824        -20.01360   0.16308    19   %  0.2019
      20     -28.31408      8.30705        -20.00702   0.16966    20   %  0.2142
      21     -29.20289      9.20209        -20.00081   0.17587    21   %  0.2266
      22     -30.12873     10.13384        -19.99489   0.18179    22   %  0.2391
      23     -31.07049     11.08092        -19.98957   0.18711    23   %  0.2515
      24     -32.03334     12.04863        -19.98471   0.19197    24   %  0.2638
      25     -33.01514     13.03460        -19.98054   0.19614    25   %  0.2761
      26     -34.02776     14.05110        -19.97667   0.20002    26   %  0.2886
      27     -35.04210     15.06893        -19.97317   0.20351    27   %  0.3009
      28     -36.08537     16.11522        -19.97015   0.20654    28   %  0.3134
      29     -37.12398     17.15647        -19.96752   0.20916    29   %  0.3258
      30     -38.18546     18.22012        -19.96533   0.21135    30   %  0.3383
      31     -39.25855     19.29505        -19.96350   0.21318    31   %  0.3509
      32     -40.32735     20.36529        -19.96207   0.21462    32   %  0.3634
      33     -41.39076     21.42974        -19.96102   0.21566    33   %  0.3757
      34     -42.46685     22.50656        -19.96030   0.21638    34   %  0.3882
      35     -43.53676     23.57689        -19.95988   0.21681    35   %  0.4006
      36     -44.61072     24.65100        -19.95973   0.21695    36   %  0.4131
      37     -45.68989     25.73007        -19.95982   0.21686    37   %  0.4256
      38     -46.75521     26.79506        -19.96015   0.21653    38   %  0.4380
      39     -47.82027     27.85961        -19.96067   0.21601    39   %  0.4505
      40     -48.87895     28.91758        -19.96136   0.21532    40   %  0.4629
      41     -49.92272     29.96051        -19.96221   0.21447    41   %  0.4752
      42     -50.96962     31.00646        -19.96317   0.21351    42   %  0.4875
      43     -52.01746     32.05321        -19.96425   0.21243    43   %  0.5000
      44     -53.04207     33.07660        -19.96546   0.21122    44   %  0.5122
      45     -54.06800     34.10127        -19.96673   0.20995    45   %  0.5246
      46     -55.09350     35.12541        -19.96808   0.20860    46   %  0.5370
      47     -56.10168     36.13214        -19.96954   0.20715    47   %  0.5493
      48     -57.09851     37.12748        -19.97103   0.20565    48   %  0.5616
      49     -58.08980     38.11723        -19.97256   0.20412    49   %  0.5738
      50     -59.08015     39.10599        -19.97416   0.20252    50   %  0.5862
      51     -60.05105     40.07523        -19.97582   0.20086    51   %  0.5985
      52     -61.01944     41.04195        -19.97750   0.19919    52   %  0.6108
      53     -61.98204     42.00281        -19.97923   0.19745    53   %  0.6232
      54     -62.94115     42.96014        -19.98101   0.19567    54   %  0.6357
      55     -63.88316     43.90032        -19.98284   0.19384    55   %  0.6481
      56     -64.81239     44.82771        -19.98468   0.19200    56   %  0.6604
      57     -65.72773     45.74119        -19.98654   0.19015    57   %  0.6728
      58     -66.64369     46.65529        -19.98840   0.18829    58   %  0.6852
      59     -67.53987     47.54956        -19.99032   0.18636    59   %  0.6976
      60     -68.43711     48.44488        -19.99222   0.18446    60   %  0.7101
      61     -69.32109     49.32690        -19.99419   0.18249    61   %  0.7226
      62     -70.19493     50.19877        -19.99616   0.18052    62   %  0.7352
      63     -71.05721     51.05906        -19.99815   0.17853    63   %  0.7477
      64     -71.90465     51.90451        -20.00014   0.17654    64   %  0.7602
      65     -72.73662     52.73467        -20.00196   0.17472    65   %  0.7726
      66     -73.55890     53.55506        -20.00384   0.17284    66   %  0.7850
      67     -74.37169     54.36596        -20.00573   0.17095    67   %  0.7975
      68     -75.17401     55.16638        -20.00763   0.16905    68   %  0.8100
      69     -75.96298     55.95344        -20.00954   0.16714    69   %  0.8225
      70     -76.75260     56.74116        -20.01144   0.16524    70   %  0.8352
      71     -77.52833     57.51494        -20.01340   0.16328    71   %  0.8478
      72     -78.29397     58.27862        -20.01535   0.16134    72   %  0.8605
      73     -79.05119     59.03389        -20.01730   0.15938    73   %  0.8732
      74     -79.79883     59.77956        -20.01927   0.15742    74   %  0.8860
      75     -80.53427     60.51303        -20.02124   0.15544    75   %  0.8987
      76     -81.25631     61.23310        -20.02320   0.15348    76   %  0.9115
      77     -81.96651     61.94136        -20.02515   0.15153    77   %  0.9242
      78     -82.66776     62.64067        -20.02709   0.14959    78   %  0.9370
      79     -83.36149     63.33245        -20.02903   0.14765    79   %  0.9498
      80     -84.03311     64.00212        -20.03099   0.14569    80   %  0.9625
      81     -84.69470     64.66183        -20.03288   0.14381    81   %  0.9751
      82     -85.34472     65.30996        -20.03476   0.14192    82   %  0.9878
      83     -85.99690     65.96028        -20.03662   0.14006    83   %  1.0007
      84     -86.62751     66.58895        -20.03855   0.13813    84   %  1.0134
      85     -87.25177     67.21136        -20.04041   0.13627    85   %  1.0262
      86     -87.86860     67.82632        -20.04229   0.13440    86   %  1.0390
      87     -88.47566     68.43149        -20.04416   0.13252    87   %  1.0519
      88     -89.07172     69.02569        -20.04604   0.13064    88   %  1.0648
      89     -89.65801     69.61012        -20.04789   0.12879    89   %  1.0777
      90     -90.23692     70.18718        -20.04974   0.12694    90   %  1.0906
      91     -90.79854     70.74695        -20.05159   0.12509    91   %  1.1034
      92     -91.35400     71.30062        -20.05338   0.12330    92   %  1.1163
      93     -91.90085     71.84567        -20.05518   0.12150    93   %  1.1293
      94     -92.43762     72.38065        -20.05697   0.11971    94   %  1.1422
      95     -92.96533     72.90658        -20.05875   0.11793    95   %  1.1551
      96     -93.47624     73.41573        -20.06051   0.11617    96   %  1.1679
      97     -93.98291     73.92070        -20.06221   0.11447    97   %  1.1808
      98     -94.48406     74.42013        -20.06393   0.11275    98   %  1.1938
      99     -94.97686     74.91120        -20.06566   0.11102    99   %  1.2068
     100     -95.46005     75.39267        -20.06737   0.10931   100   %  1.2198
     101     -95.92598     75.85691        -20.06907   0.10762   101   %  1.2326
     102     -96.38772     76.31703        -20.07068   0.10600   102   %  1.2455
     103     -96.83706     76.76475        -20.07231   0.10437   103   %  1.2583
     104     -97.28156     77.20766        -20.07390   0.10278   104   %  1.2713
     105     -97.71823     77.64274        -20.07549   0.10119   105   %  1.2842
     106     -98.14624     78.06917        -20.07707   0.09961   106   %  1.2971
     107     -98.56771     78.48909        -20.07862   0.09806   107   %  1.3101
     108     -98.97735     78.89719        -20.08017   0.09651   108   %  1.3229
     109     -99.38482     79.30316        -20.08167   0.09502   109   %  1.3359
     110     -99.78002     79.69684        -20.08318   0.09350   110   %  1.3488
     111    -100.16867     80.08402        -20.08465   0.09203   111   %  1.3617
     112    -100.54996     80.46386        -20.08610   0.09058   112   %  1.3746
     113    -100.92569     80.83816        -20.08753   0.08915   113   %  1.3876
     114    -101.29108     81.20213        -20.08895   0.08773   114   %  1.4004
     115    -101.65482     81.56449        -20.09033   0.08635   115   %  1.4135
     116    -102.00796     81.91623        -20.09172   0.08496   116   %  1.4264
     117    -102.35563     82.26256        -20.09307   0.08361   117   %  1.4393
     118    -102.69704     82.60263        -20.09441   0.08228   118   %  1.4523
     119    -103.03370     82.93798        -20.09572   0.08096   119   %  1.4653
     120    -103.36131     83.26428        -20.09703   0.07965   120   %  1.4782
     121    -103.68137     83.58307        -20.09830   0.07839   121   %  1.4911
     122    -103.99919     83.89966        -20.09953   0.07715   122   %  1.5041
     123    -104.31214     84.21136        -20.10077   0.07591   123   %  1.5172
     124    -104.61914     84.51713        -20.10201   0.07468   124   %  1.5302
     125    -104.92180     84.81859        -20.10322   0.07347   125   %  1.5433
     126    -105.21679     85.11237        -20.10442   0.07227   126   %  1.5563
     127    -105.50565     85.40007        -20.10558   0.07110   127   %  1.5693
     128    -105.78732     85.68061        -20.10671   0.06997   128   %  1.5822
     129    -106.06515     85.95734        -20.10782   0.06886   129   %  1.5952
     130    -106.33777     86.22886        -20.10891   0.06777   130   %  1.6082
     131    -106.60634     86.49635        -20.10999   0.06670   131   %  1.6211
     132    -106.87322     86.76217        -20.11105   0.06563   132   %  1.6343
     133    -107.13430     87.02218        -20.11212   0.06456   133   %  1.6474
     134    -107.38897     87.27580        -20.11317   0.06352   134   %  1.6604
     135    -107.64055     87.52637        -20.11418   0.06250   135   %  1.6736
     136    -107.88775     87.77256        -20.11519   0.06149   136   %  1.6867
     137    -108.13119     88.01501        -20.11618   0.06050   137   %  1.6998
     138    -108.36800     88.25084        -20.11716   0.05952   138   %  1.7129
     139    -108.59986     88.48175        -20.11811   0.05857   139   %  1.7259
     140    -108.83091     88.71188        -20.11904   0.05765   140   %  1.7391
     141    -109.05441     88.93444        -20.11997   0.05671   141   %  1.7521
     142    -109.27811     89.15724        -20.12087   0.05581   142   %  1.7653
     143    -109.49797     89.37618        -20.12179   0.05489   143   %  1.7786
     144    -109.71147     89.58878        -20.12269   0.05399   144   %  1.7918
     145    -109.92045     89.79689        -20.12356   0.05312   145   %  1.8049
     146    -110.12886     90.00445        -20.12442   0.05227   146   %  1.8182
     147    -110.33044     90.20516        -20.12528   0.05140   147   %  1.8314
     148    -110.52776     90.40165        -20.12611   0.05057   148   %  1.8445
     149    -110.72143     90.59450        -20.12692   0.04976   149   %  1.8576
     150    -110.91326     90.78553        -20.12773   0.04895   150   %  1.8709
     151    -111.10057     90.97204        -20.12853   0.04815   151   %  1.8842
     152    -111.28654     91.15722        -20.12932   0.04736   152   %  1.8976
     153    -111.46945     91.33933        -20.13012   0.04656   153   %  1.9110
     154    -111.64805     91.51714        -20.13092   0.04577   154   %  1.9245
     155    -111.82303     91.69133        -20.13169   0.04499   155   %  1.9380
     156    -111.99280     91.86035        -20.13246   0.04422   156   %  1.9513
     157    -112.15860     92.02540        -20.13320   0.04348   157   %  1.9647
     158    -112.32305     92.18912        -20.13393   0.04275   158   %  1.9782
     159    -112.48406     92.34939        -20.13467   0.04201   159   %  1.9918
     160    -112.64022     92.50481        -20.13541   0.04127   160   %  2.0053
     161    -112.79254     92.65642        -20.13612   0.04056   161   %  2.0188
     162    -112.94036     92.80354        -20.13682   0.03986   162   %  2.0322
     163    -113.08496     92.94747        -20.13749   0.03919   163   %  2.0457
     164    -113.22621     93.08811        -20.13810   0.03858   164   %  2.0593
     165    -113.36503     93.22674        -20.13829   0.03839   165   %  2.0729
     166    -113.49585     93.36048        -20.13537   0.04131   166   %  2.0865
     167    -113.60606     93.49350        -20.11257   0.06412   167   %  2.0980
     168    -113.67887     93.64322        -20.03565   0.14103   168   %  2.1081
     169    -113.74055     93.82787        -19.91267   0.26401   169   %  2.1130
     170    -113.79527     94.02834        -19.76693   0.40975   170   %  2.1208
     171    -113.85226     94.22918        -19.62308   0.55360   171   %  2.1254
     172    -113.90599     94.43031        -19.47569   0.70099   172   %  2.1332
     173    -113.96043     94.62567        -19.33476   0.84193   173   %  2.1377
     174    -114.01042     94.82560        -19.18482   0.99187   174   %  2.1454
     175    -114.06234     95.02436        -19.03799   1.13869   175   %  2.1497
     176    -114.10979     95.22461        -18.88518   1.29150   176   %  2.1571
     177    -114.15864     95.42077        -18.73787   1.43881   177   %  2.1613
     178    -114.20387     95.61498        -18.58889   1.58779   178   %  2.1685
     179    -114.24883     95.81137        -18.43746   1.73922   179   %  2.1727
     180    -114.29313     96.00691        -18.28622   1.89047   180   %  2.1797
     181    -114.33539     96.19946        -18.13593   2.04075   181   %  2.1837
     182    -114.37677     96.39211        -17.98467   2.19202   182   %  2.1906
     183    -114.41690     96.58499        -17.83190   2.34478   183   %  2.1944
     184    -114.45613     96.77962        -17.67651   2.50017   184   %  2.2012
     185    -114.49471     96.97139        -17.52333   2.65335   185   %  2.2049
     186    -114.53105     97.16488        -17.36617   2.81051   186   %  2.2115
     187    -114.56824     97.35611        -17.21213   2.96455   187   %  2.2151
     188    -114.60256     97.54796        -17.05460   3.12208   188   %  2.2216
     189    -114.63697     97.74226        -16.89470   3.28198   189   %  2.2250
     190    -114.67157     97.93250        -16.73907   3.43761   190   %  2.2313
     191    -114.70278     98.12211        -16.58068   3.59601   191   %  2.2347
     192    -114.73608     98.30978        -16.42631   3.75038   192   %  2.2409
     193    -114.76484     98.50117        -16.26367   3.91301   193   %  2.2442
     194    -114.79716     98.69307        -16.10409   4.07259   194   %  2.2503
     195    -114.82512     98.88356        -15.94156   4.23512   195   %  2.2535
     196    -114.85514     99.07258        -15.78256   4.39413   196   %  2.2595
     197    -114.88187     99.26113        -15.62074   4.55594   197   %  2.2625
     198    -114.91002     99.45049        -15.45953   4.71715   198   %  2.2684
     199    -114.93561     99.64103        -15.29458   4.88210   199   %  2.2714
     200    -114.96297     99.82967        -15.13331   5.04338   200   %  2.2771
     201    -114.98622    100.02062        -14.96560   5.21108   201   %  2.2800
     202    -115.01295    100.21122        -14.80174   5.37495   202   %  2.2857
     203    -115.03516    100.40223        -14.63292   5.54376   203   %  2.2885
     204    -115.06124    100.58893        -14.47231   5.70437   204   %  2.2940
     205    -115.08053    100.77981        -14.30071   5.87597   205   %  2.2967
     206    -115.10731    100.96672        -14.14059   6.03609   206   %  2.3022
     207    -115.12512    101.15406        -13.97107   6.20562   207   %  2.3048
     208    -115.14953    101.34246        -13.80707   6.36961   208   %  2.3102
     209    -115.16797    101.53101        -13.63696   6.53972   209   %  2.3127
     210    -115.18985    101.72132        -13.46853   6.70815   210   %  2.3181
     211    -115.20862    101.91111        -13.29750   6.87918   211   %  2.3205
     212    -115.22967    102.09776        -13.13191   7.04477   212   %  2.3257
     213    -115.24597    102.28733        -12.95864   7.21804   213   %  2.3281
     214    -115.26784    102.47363        -12.79421   7.38247   214   %  2.3332
     215    -115.28284    102.65958        -12.62327   7.55342   215   %  2.3355
     216    -115.30227    102.84832        -12.45394   7.72274   216   %  2.3407
     217    -115.31830    103.03720        -12.28110   7.89558   217   %  2.3428
     218    -115.33728    103.22191        -12.11538   8.06131   218   %  2.3478
     219    -115.35132    103.40672        -11.94460   8.23208   219   %  2.3499
     220    -115.36886    103.59396        -11.77490   8.40178   220   %  2.3549
     221    -115.38359    103.78134        -11.60225   8.57443   221   %  2.3570
     222    -115.39935    103.97059        -11.42876   8.74792   222   %  2.3619
     223    -115.41473    104.15727        -11.25746   8.91922   223   %  2.3638
     224    -115.42966    104.34135        -11.08831   9.08837   224   %  2.3686
     225    -115.44394    104.52318        -10.92075   9.25593   225   %  2.3705
     226    -115.45698    104.70855        -10.74843   9.42825   226   %  2.3754
     227    -115.47219    104.89249        -10.57970   9.59699   227   %  2.3771
     228    -115.48316    105.08070        -10.40246   9.77422   228   %  2.3819
     229    -115.49926    105.26617        -10.23310   9.94358   229   %  2.3836
     230    -115.50995    105.45018        -10.05977  10.11691   230   %  2.3883
     231    -115.52363    105.63498         -9.88865  10.28803   231   %  2.3900
     232    -115.53532    105.81976         -9.71556  10.46112   232   %  2.3946
     233    -115.54805    106.00316         -9.54488  10.63180   233   %  2.3962
     234    -115.55965    106.18501         -9.37464  10.80204   234   %  2.4007
     235    -115.57127    106.36574         -9.20553  10.97115   235   %  2.4023
     236    -115.58182    106.54882         -9.03301  11.14368   236   %  2.4068
     237    -115.59290    106.73433         -8.85857  11.31811   237   %  2.4084
     238    -115.60407    106.91987         -8.68420  11.49248   238   %  2.4128
     239    -115.61392    107.10610         -8.50782  11.66886   239   %  2.4143
     240    -115.62543    107.29103         -8.33440  11.84228   240   %  2.4186
     241    -115.63459    107.47501         -8.15958  12.01710   241   %  2.4201
     242    -115.64545    107.65862         -7.98683  12.18985   242   %  2.4244
     243    -115.65377    107.84385         -7.80992  12.36676   243   %  2.4258
     244    -115.66444    108.03021         -7.63423  12.54245   244   %  2.4300
     245    -115.67301    108.21587         -7.45715  12.71954   245   %  2.4314
     246    -115.68379    108.39808         -7.28571  12.89097   246   %  2.4355
     247    -115.68963    108.58425         -7.10538  13.07130   247   %  2.4369
     248    -115.70196    108.76912         -6.93284  13.24384   248   %  2.4410
     249    -115.70738    108.95402         -6.75335  13.42333   249   %  2.4423
     250    -115.71993    109.13397         -6.58596  13.59072   250   %  2.4463
     251    -115.72412    109.31390         -6.41022  13.76646   251   %  2.4476
     252    -115.73512    109.49582         -6.23930  13.93738   252   %  2.4517
     253    -115.74050    109.67905         -6.06146  14.11522   253   %  2.4529
     254    -115.74999    109.86444         -5.88555  14.29114   254   %  2.4569
     255    -115.75671    110.04844         -5.70827  14.46841   255   %  2.4581
     256    -115.76410    110.23494         -5.52917  14.64752   256   %  2.4621
     257    -115.77321    110.41611         -5.35710  14.81958   257   %  2.4631
     258    -115.77739    110.60070         -5.17669  14.99999   258   %  2.4671
     259    -115.78834    110.78120         -5.00715  15.16954   259   %  2.4681
     260    -115.79125    110.96334         -4.82791  15.34877   260   %  2.4721
     261    -115.80213    111.14271         -4.65942  15.51726   261   %  2.4730
     262    -115.80411    111.32576         -4.47835  15.69833   262   %  2.4769
     263    -115.81499    111.50805         -4.30694  15.86974   263   %  2.4779
     264    -115.81734    111.69209         -4.12525  16.05143   264   %  2.4817
     265    -115.82670    111.87699         -3.94972  16.22697   265   %  2.4826
     266    -115.83168    112.05840         -3.77328  16.40340   266   %  2.4864
     267    -115.83822    112.23933         -3.59890  16.57778   267   %  2.4873
     268    -115.84269    112.42392         -3.41877  16.75791   268   %  2.4911
     269    -115.85047    112.60730         -3.24316  16.93352   269   %  2.4919
     270    -115.85354    112.79388         -3.05966  17.11702   270   %  2.4956
     271    -115.86234    112.97774         -2.88460  17.29208   271   %  2.4964
     272    -115.86520    113.16115         -2.70405  17.47263   272   %  2.5001
     273    -115.87354    113.34131         -2.53223  17.64445   273   %  2.5009
     274    -115.87513    113.52495         -2.35017  17.82651   274   %  2.5046
     275    -115.88487    113.70480         -2.18008  17.99661   275   %  2.5053
     276    -115.88397    113.89079         -1.99318  18.18350   276   %  2.5090
     277    -115.89649    114.07025         -1.82624  18.35045   277   %  2.5097
     278    -115.89300    114.25480         -1.63819  18.53849   278   %  2.5133
     279    -115.90602    114.43692         -1.46910  18.70758   279   %  2.5139
     280    -115.90191    114.62540         -1.27651  18.90017   280   %  2.5176
     281    -115.91608    114.80873         -1.10735  19.06933   281   %  2.5181
     282    -115.91267    114.99147         -0.92120  19.25548   282   %  2.5217
     283    -115.92397    115.17299         -0.75098  19.42570   283   %  2.5223
     284    -115.92151    115.35896         -0.56255  19.61413   284   %  2.5258
     285    -115.93249    115.54354         -0.38895  19.78774   285   %  2.5264
     286    -115.93142    115.72787         -0.20355  19.97313   286   %  2.5298
     287    -115.94022    115.91109         -0.02912  20.14756   287   %  2.5304
     288    -115.94100    116.09334          0.15235  20.32903   288   %  2.5338
     289    -115.94847    116.27284          0.32437  20.50105   289   %  2.5344
     290    -115.94874    116.45480          0.50606  20.68274   290   %  2.5378
     291    -115.95545    116.63863          0.68318  20.85986   291   %  2.5383
     292    -115.95852    116.81920          0.86069  21.03737   292   %  2.5416
     293    -115.96115    117.00378          1.04263  21.21931   293   %  2.5422
     294    -115.96699    117.18692          1.21993  21.39661   294   %  2.5455
     295    -115.96893    117.36930          1.40038  21.57706   295   %  2.5460
     296    -115.97520    117.54802          1.57282  21.74950   296   %  2.5492
     297    -115.97583    117.72743          1.75160  21.92829   297   %  2.5498
     298    -115.98108    117.91004          1.92896  22.10564   298   %  2.5530
     299    -115.98375    118.09182          2.10807  22.28475   299   %  2.5535
     300    -115.98762    118.27434          2.28673  22.46341   300   %  2.5567
     301    -115.99114    118.45496          2.46383  22.64051   301   %  2.5572
     302    -115.99424    118.63565          2.64141  22.81809   302   %  2.5604
     303    -115.99741    118.81680          2.81939  22.99607   303   %  2.5608
     304    -116.00022    119.00018          2.99997  23.17665   304   %  2.5640
     305    -116.00387    119.18358          3.17971  23.35639   305   %  2.5644
     306    -116.00735    119.36499          3.35764  23.53432   306   %  2.5675
     307    -116.00888    119.54894          3.54006  23.71674   307   %  2.5679
     308    -116.01443    119.73045          3.71602  23.89270   308   %  2.5710
     309    -116.01540    119.91033          3.89492  24.07160   309   %  2.5714
     310    -116.02059    120.08813          4.06754  24.24422   310   %  2.5744
     311    -116.02016    120.26935          4.24919  24.42587   311   %  2.5748
     312    -116.02722    120.44788          4.42067  24.59735   312   %  2.5778
     313    -116.02469    120.63054          4.60585  24.78253   313   %  2.5782
     314    -116.03272    120.81260          4.77988  24.95656   314   %  2.5812
     315    -116.03034    120.99640          4.96606  25.14274   315   %  2.5816
     316    -116.03906    121.17551          5.13645  25.31313   316   %  2.5845
     317    -116.03412    121.36018          5.32606  25.50274   317   %  2.5849
     318    -116.04498    121.54133          5.49634  25.67303   318   %  2.5878
     319    -116.03986    121.72353          5.68367  25.86035   319   %  2.5882
     320    -116.04889    121.90638          5.85749  26.03417   320   %  2.5911
     321    -116.04567    122.09048          6.04481  26.22150   321   %  2.5914
     322    -116.05466    122.26994          6.21528  26.39196   322   %  2.5943
     323    -116.04955    122.45357          6.40403  26.58071   323   %  2.5946
     324    -116.06014    122.63325          6.57312  26.74980   324   %  2.5975
     325    -116.05446    122.81501          6.76055  26.93723   325   %  2.5978
     326    -116.06505    122.99305          6.92800  27.10468   326   %  2.6006
     327    -116.05863    123.17514          7.11651  27.29319   327   %  2.6009
     328    -116.06921    123.35611          7.28690  27.46358   328   %  2.6038
     329    -116.06311    123.54080          7.47769  27.65437   329   %  2.6040
     330    -116.07448    123.72027          7.64579  27.82247   330   %  2.6068
     331    -116.06635    123.90541          7.83906  28.01574   331   %  2.6071
     332    -116.07985    124.08433          8.00448  28.18116   332   %  2.6098
     333    -116.07124    124.26477          8.19353  28.37021   333   %  2.6101
     334    -116.08404    124.44066          8.35661  28.53330   334   %  2.6128
     335    -116.07387    124.62468          8.55081  28.72749   335   %  2.6131
     336    -116.08918    124.80255          8.71338  28.89006   336   %  2.6158
     337    -116.07754    124.98565          8.90812  29.08480   337   %  2.6160
     338    -116.09342    125.16313          9.06971  29.24639   338   %  2.6187
     339    -116.08092    125.34716          9.26623  29.44292   339   %  2.6190
     340    -116.09722    125.52708          9.42986  29.60654   340   %  2.6217
     341    -116.08503    125.71193          9.62689  29.80357   341   %  2.6219
     342    -116.10166    125.88956          9.78791  29.96459   342   %  2.6245
     343    -116.08689    126.07709          9.99020  30.16688   343   %  2.6247
     344    -116.10619    126.25737         10.15118  30.32787   344   %  2.6274
     345    -116.09189    126.44005         10.34817  30.52485   345   %  2.6276
     346    -116.10883    126.61908         10.51025  30.68693   346   %  2.6302
     347    -116.09547    126.80465         10.70918  30.88586   347   %  2.6304
     348    -116.11245    126.98530         10.87285  31.04953   348   %  2.6330
     349    -116.10047    127.16740         11.06693  31.24361   349   %  2.6332
     350    -116.11469    127.34758         11.23289  31.40957   350   %  2.6358
     351    -116.10433    127.53221         11.42788  31.60456   351   %  2.6359
     352    -116.11837    127.71196         11.59359  31.77027   352   %  2.6385
     353    -116.10663    127.89865         11.79202  31.96870   353   %  2.6386
     354    -116.12301    128.07689         11.95388  32.13056   354   %  2.6412
     355    -116.10876    128.26234         12.15358  32.33026   355   %  2.6413
     356    -116.12724    128.43905         12.31181  32.48849   356   %  2.6439
     357    -116.11202    128.62090         12.50888  32.68556   357   %  2.6440
     358    -116.13009    128.79745         12.66735  32.84404   358   %  2.6465
     359    -116.11362    128.98456         12.87094  33.04762   359   %  2.6466
     360    -116.13322    129.16694         13.03372  33.21040   360   %  2.6492
     361    -116.11855    129.35120         13.23264  33.40932   361   %  2.6492
     362    -116.13592    129.52927         13.39335  33.57003   362   %  2.6518
     363    -116.12267    129.71004         13.58737  33.76405   363   %  2.6518
     364    -116.13823    129.88712         13.74889  33.92557   364   %  2.6544
     365    -116.12448    130.07292         13.94844  34.12512   365   %  2.6544
     366    -116.14106    130.25516         14.11410  34.29078   366   %  2.6569
     367    -116.12910    130.43838         14.30928  34.48596   367   %  2.6569
     368    -116.14344    130.61700         14.47355  34.65023   368   %  2.6594
     369    -116.13301    130.79726         14.66425  34.84093   369   %  2.6594
     370    -116.14570    130.97445         14.82875  35.00543   370   %  2.6619
     371    -116.13494    131.15831         15.02337  35.20005   371   %  2.6619
     372    -116.14820    131.33989         15.19170  35.36838   372   %  2.6644
     373    -116.13878    131.52294         15.38416  35.56084   373   %  2.6644
     374    -116.15022    131.70358         15.55336  35.73005   374   %  2.6669
     375    -116.14296    131.88379         15.74084  35.91752   375   %  2.6668
     376    -116.15107    132.06575         15.91468  36.09137   376   %  2.6693
     377    -116.14633    132.24937         16.10304  36.27972   377   %  2.6692
     378    -116.15445    132.42843         16.27397  36.45065   378   %  2.6717
     379    -116.14832    132.61023         16.46192  36.63860   379   %  2.6716
     380    -116.15774    132.78726         16.62952  36.80620   380   %  2.6740
     381    -116.15057    132.96701         16.81643  36.99311   381   %  2.6739
     382    -116.15978    133.14532         16.98553  37.16222   382   %  2.6764
     383    -116.15218    133.32926         17.17707  37.35375   383   %  2.6763
     384    -116.16252    133.51029         17.34777  37.52445   384   %  2.6787
     385    -116.15369    133.69681         17.54313  37.71981   385   %  2.6786
     386    -116.16516    133.87984         17.71467  37.89136   386   %  2.6810
     387    -116.15663    134.06461         17.90798  38.08466   387   %  2.6809
     388    -116.16796    134.24394         18.07598  38.25267   388   %  2.6833
     389    -116.15858    134.42709         18.26851  38.44519   389   %  2.6831
     390    -116.17112    134.60389         18.43277  38.60946   390   %  2.6855
     391    -116.15858    134.79004         18.63147  38.80815   391   %  2.6854
     392    -116.17421    134.97037         18.79616  38.97284   392   %  2.6877
     393    -116.15963    135.15858         18.99895  39.17563   393   %  2.6876
     394    -116.17690    135.34037         19.16347  39.34016   394   %  2.6900
     395    -116.16233    135.52620         19.36387  39.54055   395   %  2.6898
     396    -116.17930    135.70506         19.52576  39.70244   396   %  2.6922
     397    -116.16376    135.89113         19.72737  39.90405   397   %  2.6920
     398    -116.18241    136.06840         19.88599  40.06267   398   %  2.6943
     399    -116.16424    136.25538         20.09114  40.26782   399   %  2.6942
     400    -116.18548    136.43293         20.24745  40.42413   400   %  2.6965
     401    -116.16437    136.62207         20.45769  40.63437   401   %  2.6964
     402    -116.18879    136.79969         20.61091  40.78759   402   %  2.6986
     403    -116.16510    136.98819         20.82309  40.99978   403   %  2.6985
     404    -116.19048    137.16950         20.97902  41.15570   404   %  2.7008
     405    -116.16877    137.35618         21.18741  41.36409   405   %  2.7007
     406    -116.19197    137.53548         21.34352  41.52020   406   %  2.7029
     407    -116.16985    137.72557         21.55572  41.73240   407   %  2.7028
     408    -116.19505    137.90403         21.70898  41.88566   408   %  2.7050
     409    -116.17153    138.09094         21.91941  42.09610   409   %  2.7049
     410    -116.19654    138.27020         22.07366  42.25034   410   %  2.7071
     411    -116.17417    138.45707         22.28290  42.45959   411   %  2.7070
     412    -116.19890    138.63343         22.43453  42.61121   412   %  2.7092
     413    -116.17407    138.82294         22.64887  42.82555   413   %  2.7091
     414    -116.20140    139.00192         22.80052  42.97720   414   %  2.7113
     415    -116.17728    139.18683         23.00955  43.18624   415   %  2.7111
     416    -116.20227    139.36492         23.16265  43.33933   416   %  2.7133
     417    -116.17901    139.55312         23.37411  43.55079   417   %  2.7132
     418    -116.20426    139.73266         23.52841  43.70509   418   %  2.7154
     419    -116.17987    139.92337         23.74350  43.92018   419   %  2.7152
     420    -116.20610    140.10534         23.89924  44.07592   420   %  2.7174
     421    -116.18212    140.29549         24.11337  44.29005   421   %  2.7172
     422    -116.20828    140.47448         24.26620  44.44288   422   %  2.7194
     423    -116.18404    140.66176         24.47772  44.65441   423   %  2.7192
     424    -116.20940    140.84184         24.63244  44.80912   424   %  2.7214
     425    -116.18701    141.02846         24.84146  45.01814   425   %  2.7212
     426    -116.21020    141.20952         24.99932  45.17600   426   %  2.7234
     427    -116.19080    141.39409         25.20329  45.37997   427   %  2.7231
     428    -116.21088    141.57380         25.36293  45.53961   428   %  2.7253
     429    -116.19401    141.75711         25.56310  45.73979   429   %  2.7251
     430    -116.21265    141.93284         25.72018  45.89687   430   %  2.7272
     431    -116.19587    142.11386         25.91800  46.09468   431   %  2.7270
     432    -116.21349    142.29121         26.07772  46.25440   432   %  2.7292
     433    -116.19618    142.47888         26.28270  46.45938   433   %  2.7289
     434    -116.21556    142.66016         26.44460  46.62128   434   %  2.7311
     435    -116.19779    142.84766         26.64987  46.82656   435   %  2.7308
     436    -116.21761    143.02657         26.80896  46.98564   436   %  2.7329
     437    -116.19915    143.21220         27.01306  47.18974   437   %  2.7327
     438    -116.21857    143.39313         27.17455  47.35123   438   %  2.7348
     439    -116.20228    143.57721         27.37493  47.55161   439   %  2.7345
     440    -116.21929    143.75713         27.53784  47.71452   440   %  2.7367
     441    -116.20552    143.93870         27.73317  47.90986   441   %  2.7364
     442    -116.21922    144.11949         27.90027  48.07695   442   %  2.7386
     443    -116.20800    144.30354         28.09554  48.27222   443   %  2.7382
     444    -116.22139    144.48104         28.25965  48.43633   444   %  2.7404
     445    -116.20862    144.66420         28.45558  48.63226   445   %  2.7400
     446    -116.22346    144.84101         28.61754  48.79423   446   %  2.7422
     447    -116.21007    145.02221         28.81214  48.98882   447   %  2.7418
     448    -116.22481    145.19864         28.97384  49.15052   448   %  2.7440
     449    -116.21075    145.38209         29.17134  49.34802   449   %  2.7436
     450    -116.22613    145.56157         29.33544  49.51212   450   %  2.7457
     451    -116.21288    145.74450         29.53162  49.70830   451   %  2.7454
     452    -116.22652    145.92550         29.69898  49.87566   452   %  2.7475
     453    -116.21575    146.10787         29.89212  50.06881   453   %  2.7472
     454    -116.22682    146.28911         30.06229  50.23897   454   %  2.7493
     455    -116.21893    146.46962         30.25069  50.42737   455   %  2.7489
     456    -116.22681    146.65052         30.42371  50.60039   456   %  2.7511
     457    -116.22154    146.83122         30.60969  50.78637   457   %  2.7507
     458    -116.22655    147.01446         30.78790  50.96458   458   %  2.7528
     459    -116.22465    147.19517         30.97053  51.14721   459   %  2.7524
     460    -116.22702    147.37677         31.14975  51.32643   460   %  2.7546
     461    -116.22570    147.55991         31.33421  51.51089   461   %  2.7541
     462    -116.22773    147.74501         31.51728  51.69396   462   %  2.7563
     463    -116.22756    147.92937         31.70181  51.87850   463   %  2.7558
     464    -116.23013    148.10999         31.87985  52.05653   464   %  2.7579
     465    -116.22731    148.29414         32.06683  52.24351   465   %  2.7575
     466    -116.23163    148.47776         32.24613  52.42281   466   %  2.7596
     467    -116.22865    148.66244         32.43379  52.61048   467   %  2.7592
     468    -116.23387    148.84296         32.60909  52.78577   468   %  2.7612
     469    -116.23037    149.02231         32.79194  52.96862   469   %  2.7608
     470    -116.23425    149.20232         32.96808  53.14476   470   %  2.7629
     471    -116.23193    149.38309         33.15116  53.32785   471   %  2.7625
     472    -116.23582    149.56208         33.32626  53.50294   472   %  2.7646
     473    -116.23177    149.74554         33.51377  53.69045   473   %  2.7641
     474    -116.23827    149.92493         33.68667  53.86335   474   %  2.7662
     475    -116.23199    150.10804         33.87605  54.05273   475   %  2.7657
     476    -116.23919    150.29033         34.05114  54.22782   476   %  2.7678
     477    -116.23263    150.47687         34.24425  54.42093   477   %  2.7673
     478    -116.24106    150.65965         34.41859  54.59527   478   %  2.7694
     479    -116.23511    150.84051         34.60539  54.78207   479   %  2.7690
     480    -116.24039    151.02357         34.78319  54.95987   480   %  2.7710
     481    -116.23808    151.20441         34.96633  55.14301   481   %  2.7706
     482    -116.24047    151.38679         35.14632  55.32300   482   %  2.7726
     483    -116.23919    151.57033         35.33115  55.50783   483   %  2.7722
     484    -116.24137    151.75466         35.51329  55.68998   484   %  2.7742
     485    -116.24106    151.93732         35.69626  55.87294   485   %  2.7737
     486    -116.24317    152.11725         35.87409  56.05077   486   %  2.7758
     487    -116.24211    152.29667         36.05456  56.23124   487   %  2.7753
     488    -116.24299    152.47953         36.23654  56.41322   488   %  2.7774
     489    -116.24406    152.66111         36.41705  56.59373   489   %  2.7769
     490    -116.24337    152.84499         36.60162  56.77830   490   %  2.7789
     491    -116.24554    153.02741         36.78187  56.95855   491   %  2.7784
     492    -116.24465    153.20994         36.96529  57.14197   492   %  2.7805
     493    -116.24689    153.39049         37.14360  57.32028   493   %  2.7800
     494    -116.24538    153.57264         37.32726  57.50394   494   %  2.7820
     495    -116.24734    153.75594         37.50859  57.68528   495   %  2.7815
     496    -116.24625    153.94140         37.69515  57.87183   496   %  2.7835
     497    -116.24915    154.12405         37.87490  58.05158   497   %  2.7830
     498    -116.24614    154.31054         38.06440  58.24108   498   %  2.7851
     499    -116.25146    154.49239         38.24094  58.41762   499   %  2.7845
     500    -116.24795    154.67310         38.42514  58.60183   500   %  2.7866
     501    -116.25060    154.85670         38.60610  58.78279   501   %  2.7860
     502    -116.25098    155.03711         38.78614  58.96282   502   %  2.7880
     503    -116.25096    155.21772         38.96676  59.14344   503   %  2.7875
     504    -116.25177    155.39912         39.14734  59.32402   504   %  2.7895
     505    -116.25291    155.57783         39.32491  59.50160   505   %  2.7890
     506    -116.25137    155.76044         39.50907  59.68575   506   %  2.7910
     507    -116.25501    155.93977         39.68476  59.86144   507   %  2.7905
     508    -116.25092    156.12406         39.87314  60.04982   508   %  2.7925
     509    -116.25578    156.30827         40.05248  60.22916   509   %  2.7919
     510    -116.25223    156.49407         40.24183  60.41852   510   %  2.7940
     511    -116.25812    156.67348         40.41536  60.59204   511   %  2.7934
     512    -116.25158    156.85826         40.60668  60.78336   512   %  2.7954
     513    -116.25913    157.04124         40.78211  60.95879   513   %  2.7949
     514    -116.25244    157.22782         40.97538  61.15206   514   %  2.7969
     515    -116.26119    157.40797         41.14678  61.32346   515   %  2.7963
     516    -116.25183    157.59464         41.34281  61.51950   516   %  2.7983
     517    -116.26271    157.77667         41.51396  61.69064   517   %  2.7977
     518    -116.25314    157.96158         41.70844  61.88513   518   %  2.7998
     519    -116.26431    158.13970         41.87539  62.05207   519   %  2.7992
     520    -116.25371    158.32216         42.06844  62.24513   520   %  2.8012
     521    -116.26419    158.50388         42.23969  62.41637   521   %  2.8006
     522    -116.25600    158.68697         42.43096  62.60764   522   %  2.8026
     523    -116.26472    158.86697         42.60225  62.77894   523   %  2.8020
     524    -116.25687    159.05040         42.79353  62.97021   524   %  2.8040
     525    -116.26499    159.23273         42.96774  63.14442   525   %  2.8034
     526    -116.25769    159.41910         43.16142  63.33810   526   %  2.8054
     527    -116.26650    159.60067         43.33417  63.51085   527   %  2.8048
     528    -116.25721    159.78877         43.53156  63.70824   528   %  2.8068
     529    -116.26852    159.97035         43.70183  63.87851   529   %  2.8062
     530    -116.25660    160.15947         43.90287  64.07955   530   %  2.8082
     531    -116.27083    160.33988         44.06905  64.24573   531   %  2.8076
     532    -116.25584    160.52887         44.27303  64.44972   532   %  2.8096
     533    -116.27275    160.70913         44.43638  64.61306   533   %  2.8089
     534    -116.25722    160.89358         44.63636  64.81304   534   %  2.8109
     535    -116.27201    161.07654         44.80453  64.98121   535   %  2.8103
     536    -116.25808    161.26671         45.00863  65.18531   536   %  2.8123
     537    -116.27370    161.44915         45.17545  65.35213   537   %  2.8117
     538    -116.25893    161.63658         45.37765  65.55433   538   %  2.8136
     539    -116.27411    161.81919         45.54508  65.72176   539   %  2.8130
     540    -116.26094    162.00482         45.74388  65.92057   540   %  2.8150
     541    -116.27365    162.18873         45.91508  66.09176   541   %  2.8143
     542    -116.26321    162.37459         46.11139  66.28807   542   %  2.8163
     543    -116.27333    162.55912         46.28579  66.46247   543   %  2.8156
     544    -116.26610    162.74250         46.47640  66.65308   544   %  2.8176
     545    -116.27289    162.92521         46.65232  66.82900   545   %  2.8169
     546    -116.26800    163.10817         46.84017  67.01685   546   %  2.8189
     547    -116.27358    163.28862         47.01504  67.19172   547   %  2.8183
     548    -116.26885    163.47094         47.20209  67.37878   548   %  2.8202
     549    -116.27380    163.65292         47.37912  67.55580   549   %  2.8196
     550    -116.26932    163.83841         47.56909  67.74577   550   %  2.8215
     551    -116.27497    164.02120         47.74623  67.92291   551   %  2.8209
     552    -116.27117    164.20283         47.93167  68.10835   552   %  2.8228
     553    -116.27415    164.38642         48.11227  68.28895   553   %  2.8222
     554    -116.27231    164.57151         48.29920  68.47588   554   %  2.8241
     555    -116.27535    164.75436         48.47901  68.65569   555   %  2.8235
     556    -116.27212    164.94080         48.66868  68.84537   556   %  2.8254
     557    -116.27742    165.12236         48.84495  69.02163   557   %  2.8248
     558    -116.27139    165.30928         49.03790  69.21458   558   %  2.8267
     559    -116.27939    165.49076         49.21137  69.38805   559   %  2.8261
     560    -116.27284    165.67251         49.39968  69.57636   560   %  2.8280
     561    -116.27847    165.85570         49.57723  69.75391   561   %  2.8273
     562    -116.27355    166.04274         49.76919  69.94587   562   %  2.8292
     563    -116.27982    166.22634         49.94652  70.12320   563   %  2.8286
     564    -116.27396    166.41275         50.13878  70.31546   564   %  2.8305
     565    -116.28029    166.59755         50.31726  70.49394   565   %  2.8299
     566    -116.27652    166.77991         50.50338  70.68007   566   %  2.8317
     567    -116.28000    166.96191         50.68191  70.85859   567   %  2.8311
     568    -116.27791    167.14389         50.86598  71.04266   568   %  2.8330
     569    -116.28022    167.32590         51.04568  71.22236   569   %  2.8323
     570    -116.27862    167.50932         51.23070  71.40738   570   %  2.8342
     571    -116.28097    167.69184         51.41087  71.58755   571   %  2.8336
     572    -116.27976    167.87411         51.59435  71.77103   572   %  2.8355
     573    -116.28192    168.05430         51.77239  71.94907   573   %  2.8348
     574    -116.28015    168.23602         51.95587  72.13256   574   %  2.8367
     575    -116.28189    168.41922         52.13734  72.31402   575   %  2.8361
     576    -116.28058    168.60492         52.32434  72.50102   576   %  2.8379
     577    -116.28340    168.78776         52.50436  72.68104   577   %  2.8373
     578    -116.28034    168.97380         52.69346  72.87014   578   %  2.8392
     579    -116.28548    169.15463         52.86915  73.04584   579   %  2.8385
     580    -116.27925    169.34147         53.06221  73.23890   580   %  2.8404
     581    -116.28714    169.52388         53.23673  73.41342   581   %  2.8398
     582    -116.28069    169.70668         53.42599  73.60267   582   %  2.8416
     583    -116.28660    169.88955         53.60295  73.77963   583   %  2.8409
     584    -116.28179    170.07455         53.79276  73.96944   584   %  2.8428
     585    -116.28761    170.25635         53.96873  74.14542   585   %  2.8422
     586    -116.28344    170.43714         54.15370  74.33038   586   %  2.8440
     587    -116.28818    170.61513         54.32695  74.50363   587   %  2.8433
     588    -116.28274    170.79874         54.51600  74.69268   588   %  2.8452
     589    -116.28953    170.97930         54.68976  74.86644   589   %  2.8446
     590    -116.28255    171.16463         54.88208  75.05876   590   %  2.8464
     591    -116.29062    171.34626         55.05563  75.23231   591   %  2.8457
     592    -116.28364    171.52952         55.24588  75.42256   592   %  2.8476
     593    -116.29158    171.70821         55.41663  75.59331   593   %  2.8469
     594    -116.28369    171.89118         55.60749  75.78418   594   %  2.8488
     595    -116.29136    172.07424         55.78288  75.95956   595   %  2.8481
     596    -116.28404    172.26219         55.97815  76.15484   596   %  2.8500
     597    -116.29312    172.44407         56.15095  76.32763   597   %  2.8493
     598    -116.28412    172.62988         56.34575  76.52243   598   %  2.8511
     599    -116.29302    172.81452         56.52151  76.69819   599   %  2.8504
     600    -116.28604    172.99990         56.71386  76.89054   600   %  2.8523
     601    -116.29297    173.18357         56.89060  77.06729   601   %  2.8516
     602    -116.28620    173.37159         57.08539  77.26207   602   %  2.8534
     603    -116.29500    173.55283         57.25784  77.43452   603   %  2.8528
     604    -116.28598    173.73853         57.45255  77.62923   604   %  2.8546
     605    -116.29659    173.91756         57.62097  77.79765   605   %  2.8539
     606    -116.28631    174.10062         57.81431  77.99099   606   %  2.8558
     607    -116.29676    174.28095         57.98418  78.16086   607   %  2.8551
     608    -116.28594    174.46849         58.18255  78.35924   608   %  2.8569
     609    -116.29759    174.65223         58.35464  78.53133   609   %  2.8562
     610    -116.28814    174.83599         58.54785  78.72453   610   %  2.8580
     611    -116.29740    175.01683         58.71944  78.89612   611   %  2.8573
     612    -116.28927    175.20011         58.91083  79.08751   612   %  2.8591
     613    -116.29748    175.38149         59.08401  79.26069   613   %  2.8585
     614    -116.28984    175.56655         59.27671  79.45339   614   %  2.8603
     615    -116.29825    175.74809         59.44984  79.62652   615   %  2.8596
     616    -116.29105    175.93094         59.63989  79.81657   616   %  2.8614
     617    -116.29897    176.10962         59.81065  79.98734   617   %  2.8607
     618    -116.29094    176.29300         60.00206  80.17874   618   %  2.8625
     619    -116.29869    176.47657         60.17788  80.35456   619   %  2.8618
     620    -116.29150    176.66434         60.37283  80.54952   620   %  2.8636
     621    -116.30056    176.84520         60.54464  80.72132   621   %  2.8629
     622    -116.29136    177.03018         60.73881  80.91550   622   %  2.8648
     623    -116.30185    177.20921         60.90736  81.08405   623   %  2.8641
     624    -116.29137    177.39324         61.10186  81.27855   624   %  2.8659
     625    -116.30204    177.57466         61.27262  81.44930   625   %  2.8652
     626    -116.29156    177.76175         61.47019  81.64687   626   %  2.8670
     627    -116.30317    177.94332         61.64016  81.81684   627   %  2.8663
     628    -116.29075    178.13254         61.84179  82.01847   628   %  2.8681
     629    -116.30504    178.31340         62.00836  82.18504   629   %  2.8674
     630    -116.28997    178.50218         62.21221  82.38889   630   %  2.8692
     631    -116.30679    178.68152         62.37473  82.55141   631   %  2.8685
     632    -116.28822    178.87229         62.58407  82.76075   632   %  2.8703
     633    -116.30824    179.05426         62.74602  82.92270   633   %  2.8696
     634    -116.28713    179.24754         62.96041  83.13709   634   %  2.8714
     635    -116.30905    179.43284         63.12380  83.30048   635   %  2.8707
     636    -116.28831    179.62484         63.33653  83.51322   636   %  2.8725
     637    -116.31024    179.80551         63.49527  83.67195   637   %  2.8717
     638    -116.28871    179.99401         63.70530  83.88198   638   %  2.8736
     639    -116.30977    180.17771         63.86794  84.04463   639   %  2.8728
     640    -116.29026    180.36800         64.07774  84.25442   640   %  2.8746
     641    -116.30977    180.55232         64.24255  84.41923   641   %  2.8739
     642    -116.29120    180.74334         64.45214  84.62882   642   %  2.8757
     643    -116.31036    180.92671         64.61635  84.79303   643   %  2.8749
     644    -116.29200    181.11645         64.82444  85.00112   644   %  2.8767
     645    -116.31071    181.29936         64.98865  85.16533   645   %  2.8760
     646    -116.29198    181.49095         65.19897  85.37566   646   %  2.8778
     647    -116.31111    181.67635         65.36525  85.54193   647   %  2.8770
     648    -116.29313    181.86760         65.57448  85.75116   648   %  2.8788
     649    -116.31221    182.04911         65.73690  85.91359   649   %  2.8781
     650    -116.29380    182.23666         65.94286  86.11954   650   %  2.8799
     651    -116.31185    182.41973         66.10787  86.28455   651   %  2.8791
     652    -116.29535    182.60786         66.31251  86.48919   652   %  2.8809
     653    -116.31146    182.79223         66.48077  86.65745   653   %  2.8802
     654    -116.29564    182.98403         66.68839  86.86507   654   %  2.8820
     655    -116.31216    183.16960         66.85744  87.03412   655   %  2.8812
     656    -116.29750    183.35763         67.06014  87.23682   656   %  2.8830
     657    -116.31304    183.53709         67.22405  87.40074   657   %  2.8822
     658    -116.29681    183.72484         67.42803  87.60471   658   %  2.8840
     659    -116.31372    183.90662         67.59290  87.76958   659   %  2.8833
     660    -116.29776    184.09369         67.79593  87.97262   660   %  2.8850
     661    -116.31325    184.27750         67.96425  88.14093   661   %  2.8843
     662    -116.29990    184.46367         68.16378  88.34046   662   %  2.8860
     663    -116.31280    184.64665         68.33385  88.51054   663   %  2.8853
     664    -116.30220    184.83016         68.52796  88.70464   664   %  2.8870
     665    -116.31166    185.01340         68.70174  88.87842   665   %  2.8863
     666    -116.30367    185.19882         68.89516  89.07184   666   %  2.8880
     667    -116.31256    185.37922         69.06666  89.24334   667   %  2.8873
     668    -116.30265    185.56653         69.26388  89.44056   668   %  2.8891
     669    -116.31367    185.74912         69.43545  89.61213   669   %  2.8883
     670    -116.30410    185.93295         69.62886  89.80554   670   %  2.8900
     671    -116.31313    186.11509         69.80195  89.97864   671   %  2.8893
     672    -116.30521    186.29969         69.99449  90.17117   672   %  2.8910
     673    -116.31373    186.48040         70.16667  90.34335   673   %  2.8903
     674    -116.30621    186.66260         70.35639  90.53307   674   %  2.8920
     675    -116.31393    186.84194         70.52801  90.70470   675   %  2.8913
     676    -116.30581    187.02686         70.72105  90.89773   676   %  2.8930
     677    -116.31391    187.21107         70.89716  91.07384   677   %  2.8923
     678    -116.30707    187.39695         71.08989  91.26657   678   %  2.8940
     679    -116.31386    187.58102         71.26716  91.44384   679   %  2.8933
     680    -116.30725    187.76882         71.46158  91.63826   680   %  2.8950
     681    -116.31594    187.94898         71.63304  91.80973   681   %  2.8943
     682    -116.30667    188.13380         71.82713  92.00381   682   %  2.8960
     683    -116.31697    188.31337         71.99641  92.17309   683   %  2.8953
     684    -116.30651    188.49826         72.19175  92.36843   684   %  2.8970
     685    -116.31735    188.67967         72.36232  92.53900   685   %  2.8962
     686    -116.30702    188.86528         72.55826  92.73494   686   %  2.8980
     687    -116.31826    189.04521         72.72695  92.90363   687   %  2.8972
     688    -116.30784    189.22785         72.92001  93.09669   688   %  2.8989
     689    -116.31836    189.40689         73.08852  93.26520   689   %  2.8982
     690    -116.30717    189.59327         73.28610  93.46278   690   %  2.8999
     691    -116.31846    189.77775         73.45929  93.63598   691   %  2.8992
     692    -116.30880    189.96392         73.65512  93.83180   692   %  2.9009
     693    -116.31858    190.14621         73.82764  94.00432   693   %  2.9001
     694    -116.30859    190.33401         74.02542  94.20210   694   %  2.9019
     695    -116.32003    190.51514         74.19511  94.37179   695   %  2.9011
     696    -116.30773    190.70329         74.39556  94.57224   696   %  2.9028
     697    -116.32165    190.88337         74.56171  94.73839   697   %  2.9021
     698    -116.30620    191.07302         74.76682  94.94350   698   %  2.9038
     699    -116.32316    191.25430         74.93115  95.10783   699   %  2.9030
     700    -116.30496    191.44565         75.14068  95.31737   700   %  2.9048
     701    -116.32511    191.62540         75.30029  95.47697   701   %  2.9040
     702    -116.30398    191.81509         75.51111  95.68779   702   %  2.9058
     703    -116.32641    191.99380         75.66740  95.84408   703   %  2.9050
     704    -116.30429    192.18064         75.87635  96.05303   704   %  2.9067
     705    -116.32665    192.35925         76.03261  96.20929   705   %  2.9059
     706    -116.30348    192.54974         76.24626  96.42294   706   %  2.9077
     707    -116.32699    192.73288         76.40588  96.58256   707   %  2.9069
     708    -116.30525    192.92183         76.61659  96.79327   708   %  2.9086
     709    -116.32688    193.10313         76.77625  96.95294   709   %  2.9078
     710    -116.30429    193.29646         76.99217  97.16885   710   %  2.9096
     711    -116.32827    193.47883         77.15057  97.32725   711   %  2.9088
     712    -116.30442    193.67025         77.36583  97.54251   712   %  2.9105
     713    -116.32868    193.85207         77.52338  97.70006   713   %  2.9097
     714    -116.30360    194.04629         77.74268  97.91937   714   %  2.9114
     715    -116.33033    194.22689         77.89656  98.07325   715   %  2.9106
     716    -116.30333    194.41830         78.11498  98.29166   716   %  2.9124
     717    -116.33026    194.60095         78.27069  98.44737   717   %  2.9116
     718    -116.30482    194.79190         78.48707  98.66375   718   %  2.9133
     719    -116.32991    194.97528         78.64537  98.82205   719   %  2.9125
     720    -116.30457    195.17060         78.86604  99.04272   720   %  2.9142
     721    -116.33179    195.35099         79.01920  99.19588   721   %  2.9134
     722    -116.30191    195.54786         79.24595  99.42263   722   %  2.9152
     723    -116.33247    195.73368         79.40121  99.57789   723   %  2.9143
     724    -116.30249    195.93107         79.62858  99.80526   724   %  2.9161
     725    -116.33382    196.11221         79.77839  99.95507   725   %  2.9153
     726    -116.30057    196.31006         80.00949 100.18618   726   %  2.9170
     727    -116.33435    196.49549         80.16114 100.33782   727   %  2.9162
     728    -116.30101    196.69424         80.39322 100.56991   728   %  2.9180
     729    -116.33547    196.87629         80.54081 100.71750   729   %  2.9171
     730    -116.29906    197.07666         80.77760 100.95428   730   %  2.9189
     731    -116.33623    197.26219         80.92597 101.10265   731   %  2.9180
     732    -116.30024    197.46050         81.16026 101.33694   732   %  2.9198
     733    -116.33597    197.64640         81.31042 101.48710   733   %  2.9189
     734    -116.30201    197.84382         81.54181 101.71849   734   %  2.9207
     735    -116.33659    198.02577         81.68917 101.86586   735   %  2.9199
     736    -116.30296    198.21959         81.91663 102.09332   736   %  2.9216
     737    -116.33635    198.40201         82.06566 102.24234   737   %  2.9207
     738    -116.30457    198.59532         82.29075 102.46743   738   %  2.9225
     739    -116.33584    198.77929         82.44344 102.62012   739   %  2.9216
     740    -116.30411    198.97837         82.67426 102.85094   740   %  2.9234
     741    -116.33650    199.16511         82.82861 103.00529   741   %  2.9225
     742    -116.30384    199.36584         83.06200 103.23868   742   %  2.9243
     743    -116.33831    199.54736         83.20906 103.38574   743   %  2.9234
     744    -116.30282    199.74428         83.44146 103.61814   744   %  2.9252
     745    -116.33877    199.92659         83.58782 103.76450   745   %  2.9243
     746    -116.30128    200.12783         83.82656 104.00324   746   %  2.9261
     747    -116.33930    200.31499         83.97569 104.15237   747   %  2.9252
     748    -116.30363    200.51260         84.20897 104.38565   748   %  2.9269
     749    -116.33919    200.69622         84.35704 104.53372   749   %  2.9261
     750    -116.30492    200.89208         84.58716 104.76384   750   %  2.9278
     751    -116.33917    201.07543         84.73625 104.91293   751   %  2.9270
     752    -116.30479    201.27384         84.96905 105.14573   752   %  2.9287
     753    -116.33956    201.45914         85.11957 105.29625   753   %  2.9279
     754    -116.30635    201.65531         85.34896 105.52564   754   %  2.9296
     755    -116.34023    201.83566         85.49544 105.67212   755   %  2.9287
     756    -116.30614    202.03025         85.72411 105.90079   756   %  2.9304
     757    -116.33976    202.21520         85.87545 106.05213   757   %  2.9296
     758    -116.30829    202.41015         86.10186 106.27854   758   %  2.9313
     759    -116.33994    202.59243         86.25250 106.42918   759   %  2.9304
     760    -116.30889    202.78642         86.47752 106.65421   760   %  2.9322
     761    -116.33978    202.97014         86.63036 106.80704   761   %  2.9313
     762    -116.30838    203.16860         86.86022 107.03691   762   %  2.9330
     763    -116.34043    203.35455         87.01412 107.19080   763   %  2.9322
     764    -116.31088    203.54747         87.23659 107.41327   764   %  2.9339
     765    -116.33984    203.73053         87.39070 107.56738   765   %  2.9330
     766    -116.31098    203.92622         87.61524 107.79192   766   %  2.9347
     767    -116.34121    204.10698         87.76577 107.94245   767   %  2.9339
     768    -116.31115    204.29879         87.98764 108.16432   768   %  2.9356
     769    -116.34096    204.48068         88.13972 108.31640   769   %  2.9347
     770    -116.31207    204.67350         88.36144 108.53812   770   %  2.9364
     771    -116.34177    204.85289         88.51113 108.68781   771   %  2.9356
     772    -116.31055    205.04772         88.73717 108.91385   772   %  2.9373
     773    -116.34268    205.22904         88.88636 109.06304   773   %  2.9364
     774    -116.30876    205.42769         89.11893 109.29561   774   %  2.9382
     775    -116.34313    205.61399         89.27087 109.44755   775   %  2.9373
     776    -116.31012    205.81147         89.50135 109.67803   776   %  2.9390
     777    -116.34298    205.99703         89.65405 109.83073   777   %  2.9381
     778    -116.31234    206.19128         89.87894 110.05562   778   %  2.9398
     779    -116.34337    206.37172         90.02835 110.20503   779   %  2.9390
     780    -116.31203    206.56553         90.25350 110.43019   780   %  2.9407
     781    -116.34412    206.74555         90.40144 110.57812   781   %  2.9398
     782    -116.30968    206.94421         90.63453 110.81121   782   %  2.9415
     783    -116.34542    207.12684         90.78143 110.95811   783   %  2.9407
     784    -116.30950    207.32406         91.01456 111.19124   784   %  2.9424
     785    -116.34589    207.50585         91.15996 111.33664   785   %  2.9415
     786    -116.30857    207.70499         91.39642 111.57310   786   %  2.9432
     787    -116.34604    207.89099         91.54496 111.72164   787   %  2.9424
     788    -116.30939    208.09115         91.78176 111.95844   788   %  2.9440
     789    -116.34699    208.27320         91.92621 112.10289   789   %  2.9432
     790    -116.30735    208.47506         92.16771 112.34439   790   %  2.9449
     791    -116.34760    208.66086         92.31326 112.48994   791   %  2.9440
     792    -116.30844    208.86106         92.55263 112.72931   792   %  2.9457
     793    -116.34736    209.04729         92.69993 112.87662   793   %  2.9448
     794    -116.31040    209.24587         92.93548 113.11216   794   %  2.9465
     795    -116.34789    209.42741         93.07951 113.25619   795   %  2.9457
     796    -116.31105    209.62272         93.31167 113.48835   796   %  2.9473
     797    -116.34751    209.80591         93.45840 113.63508   797   %  2.9465
     798    -116.31263    210.00149         93.68886 113.86554   798   %  2.9482
     799    -116.34719    210.18554         93.83835 114.01503   799   %  2.9473
     800    -116.31266    210.38451         94.07184 114.24853   800   %  2.9490
     801    -116.34765    210.56974         94.22209 114.39877   801   %  2.9481
     802    -116.31464    210.76462         94.44999 114.62667   802   %  2.9498
     803    -116.34690    210.94946         94.60257 114.77925   803   %  2.9489
     804    -116.31514    211.14753         94.83238 115.00907   804   %  2.9506
     805    -116.34739    211.33283         94.98544 115.16212   805   %  2.9497
     806    -116.31758    211.52527         95.20769 115.38437   806   %  2.9513
     807    -116.34648    211.70896         95.36248 115.53916   807   %  2.9505
     808    -116.31741    211.90615         95.58874 115.76542   808   %  2.9522
     809    -116.34808    212.08763         95.73956 115.91624   809   %  2.9513
     810    -116.31527    212.28563         95.97036 116.14704   810   %  2.9530
     811    -116.34882    212.46995         96.12113 116.29781   811   %  2.9521
     812    -116.31558    212.66726         96.35168 116.52836   812   %  2.9538
     813    -116.34957    212.84904         96.49947 116.67615   813   %  2.9529
     814    -116.31599    213.04342         96.72743 116.90411   814   %  2.9546
     815    -116.34939    213.22609         96.87670 117.05338   815   %  2.9537
     816    -116.31785    213.41870         97.10085 117.27753   816   %  2.9554
     817    -116.34885    213.60149         97.25264 117.42933   817   %  2.9545
     818    -116.32010    213.79236         97.47226 117.64894   818   %  2.9561
     819    -116.34810    213.97508         97.62698 117.80366   819   %  2.9553
     820    -116.32218    214.16510         97.84292 118.01960   820   %  2.9569
     821    -116.34728    214.34846         98.00118 118.17786   821   %  2.9560
     822    -116.32455    214.53717         98.21262 118.38930   822   %  2.9577
     823    -116.34656    214.71963         98.37308 118.54976   823   %  2.9568
     824    -116.32674    214.90636         98.57962 118.75631   824   %  2.9584
     825    -116.34544    215.08934         98.74390 118.92058   825   %  2.9576
     826    -116.32842    215.27698         98.94856 119.12525   826   %  2.9592
     827    -116.34620    215.45562         99.10942 119.28611   827   %  2.9583
     828    -116.32686    215.64500         99.31814 119.49482   828   %  2.9600
     829    -116.34675    215.82747         99.48072 119.65740   829   %  2.9591
     830    -116.32799    216.01540         99.68741 119.86410   830   %  2.9607
     831    -116.34643    216.19742         99.85099 120.02767   831   %  2.9599
     832    -116.32980    216.38284        100.05303 120.22972   832   %  2.9615
     833    -116.34521    216.56596        100.22074 120.39743   833   %  2.9606
     834    -116.33119    216.75330        100.42212 120.59880   834   %  2.9622
     835    -116.34609    216.93268        100.58659 120.76328   835   %  2.9614
     836    -116.33003    217.12065        100.79062 120.96730   836   %  2.9630
     837    -116.34677    217.30205        100.95527 121.13196   837   %  2.9622
     838    -116.33080    217.48838        101.15758 121.33426   838   %  2.9638
     839    -116.34599    217.67167        101.32568 121.50236   839   %  2.9629
     840    -116.33233    217.85837        101.52603 121.70272   840   %  2.9645
     841    -116.34525    218.04251        101.69726 121.87394   841   %  2.9637
     842    -116.33484    218.22623        101.89139 122.06807   842   %  2.9653
     843    -116.34437    218.40785        102.06348 122.24016   843   %  2.9644
     844    -116.33611    218.59102        102.25491 122.43159   844   %  2.9660
     845    -116.34434    218.77128        102.42694 122.60362   845   %  2.9652
     846    -116.33637    218.95486        102.61850 122.79518   846   %  2.9668
     847    -116.34429    219.13639        102.79210 122.96878   847   %  2.9659
     848    -116.33669    219.32121        102.98452 123.16120   848   %  2.9675
     849    -116.34491    219.50188        103.15697 123.33365   849   %  2.9667
     850    -116.33744    219.68400        103.34656 123.52324   850   %  2.9683
     851    -116.34501    219.86295        103.51794 123.69462   851   %  2.9675


           POTENTIAL ENERGY HAS STOPPED DROPPING


 **********************
 *                    *
 * JOB ENDED NORMALLY *
 *                    *
 **********************



 TOTAL JOB TIME:             0.33 SECONDS

 == MOPAC DONE ==
