 *******************************************************************************
 ** Site#:  999         For non-commercial use only           Version 21.129  **
 *******************************************************************************
 ** Cite this program as: MOPAC2016, Version: 21.129 , James J. P. Stewart,   **
 ** Stewart Computational Chemistry, web-site: HTTP://OpenMOPAC.net.          **
 *******************************************************************************
 **                                                                           **
 **                                MOPAC2016                                  **
 **                                                                           **
 *******************************************************************************

                              PM7 CALCULATION RESULTS

 *******************************************************************************
 *  CALCULATION DONE:                                Sun Nov 20 12:22:50 2022  *
 *  PM7        - The PM7 Hamiltonian to be used
 *
 *
 *
 *                 CHARGE ON SYSTEM = 0
 *
 *
 *
 *  IRC=N      - INTRINSIC REACTION COORDINATE  1 DEFINED
 *  PRECISE    - TIGHTER CRITERIA TO BE USED
 *  THREADS=1  - MULTI-THREADING NOT USED
 *  T=         - A TIME OF 172800.0 SECONDS REQUESTED
 *  DUMP=N     - RESTART FILE WRITTEN EVERY 7200.0 SECONDS REQUESTED
 *  CYCLES=    - DO A MAXIMUM OF 5000 STEPS
 *  OLDENS     - INITIAL DENSITY MATRIX READ OFF DISK
 *******************************************************************************
   pm7 threads=1 charge=0 irc= 1 oldens precise cycles=5000
 title
 title
   ATOM   CHEMICAL          X               Y               Z
  NUMBER   SYMBOL      (ANGSTROMS)     (ANGSTROMS)     (ANGSTROMS)
 
     1       C          0.53364154  *   0.11839862  *   0.28741876  *
     2       O          0.23149086  *   0.63402620  *   1.29914712  *
     3       O          1.44367745  *   0.02230328  *  -0.61027048  *
     4       H         -0.24387265  *  -0.77593897  *  -0.38644344  *
     5       H          0.52813812  *  -0.81572386  *  -1.08660557  *
 


          CARTESIAN COORDINATES 

    NO.       ATOM           X           Y           Z

     1         C          0.5336      0.1184      0.2874
     2         O          0.2315      0.6340      1.2991
     3         O          1.4437      0.0223     -0.6103
     4         H         -0.2439     -0.7759     -0.3864
     5         H          0.5281     -0.8157     -1.0866

 General Reference for PM7:
 "Optimization of Parameters for Semiempirical Methods VI: More Modifications to the 
 NDDO Approximations and Re-optimization of Parameters", J. J. P. Stewart, J. Mol. Mod., 1:32, 19 (2013)
 https://link.springer.com/article/10.1007/s00894-012-1667-x

           Empirical Formula: C H2 O2  =     5 atoms



      MOLECULAR POINT GROUP   :   Cs  


      RHF CALCULATION, NO. OF DOUBLY OCCUPIED LEVELS = 9



          HEAT OF FORMATION =     -20.173038 KCALS/MOLE


          GRADIENT NORM =   0.03873


          TIME FOR SCF CALCULATION =    0.00

          TIME FOR DERIVATIVES     =    0.00

          MOLECULAR WEIGHT =   46.03


          ESTIMATED TIME TO COMPLETE CALCULATION =        0.23 SECONDS

    FOR POINT-GROUP Cs   THERE ARE   2 UNIQUE SYMMETRY FUNCTIONS.

 STEP:   1 TIME =     0.00 SECS, INTEGRAL =      0.00 TIME LEFT: 172800.00
 STEP:   2 TIME =     0.00 SECS, INTEGRAL =      0.00 TIME LEFT: 172799.99
 STEP:   3 TIME =     0.00 SECS, INTEGRAL =      0.00 TIME LEFT: 172799.99
 STEP:   4 TIME =     0.00 SECS, INTEGRAL =      0.01 TIME LEFT: 172799.99
 STEP:   5 TIME =     0.00 SECS, INTEGRAL =      0.01 TIME LEFT: 172799.99
 STEP:   6 TIME =     0.00 SECS, INTEGRAL =      0.01 TIME LEFT: 172799.98
 STEP:   7 TIME =     0.00 SECS, INTEGRAL =      0.01 TIME LEFT: 172799.98
 STEP:   8 TIME =     0.00 SECS, INTEGRAL =      0.02 TIME LEFT: 172799.98
 STEP:   9 TIME =     0.00 SECS, INTEGRAL =      0.02 TIME LEFT: 172799.98
 STEP:  10 TIME =     0.00 SECS, INTEGRAL =      0.02 TIME LEFT: 172799.98
 STEP:  11 TIME =     0.00 SECS, INTEGRAL =      0.02 TIME LEFT: 172799.97
 STEP:  12 TIME =     0.00 SECS, INTEGRAL =      0.02 TIME LEFT: 172799.97
 STEP:  13 TIME =     0.00 SECS, INTEGRAL =      0.03 TIME LEFT: 172799.97
 STEP:  14 TIME =     0.00 SECS, INTEGRAL =      0.03 TIME LEFT: 172799.97
 STEP:  15 TIME =     0.00 SECS, INTEGRAL =      0.03 TIME LEFT: 172799.96
  Stopping critera: r_ij>5*r_ij(0)
 
           INITIAL VELOCITY IN DRC (Angstroms/Femtosecond)
         0.00813        -0.05657         0.00000
         0.00654         0.00865        -0.00000
        -0.02813        -0.00682         0.00000
         0.33937         0.10532        -0.00004
        -0.09348         0.53969        -0.00005
 
  Deltat    =   0.24 fs
  Maxcyc    =      5000
  Jloop_lim =      5000
 
  Initial distance matrix
  Bond#     i     j    Ini_value(A)
      1     1     2          1.175
      2     1     3          1.282
      3     1     4          1.363
      4     1     5          1.661
      5     2     3          2.343
      6     2     4          2.248
      7     2     5          2.807
      8     3     4          1.880
      9     3     5          1.329
     10     4     5          1.043
 
 


     POINT   POTENTIAL  +  ENERGY LOST   =   TOTAL      ERROR    REF%   MOVEMENT
       1     -20.17304      0.00000        -20.17304   0.00000     1   %  0.0000
       2     -20.17397      0.00000        -20.17397  -0.00094     2   %  0.0023
       3     -20.17674      0.00000        -20.17674  -0.00370     3   %  0.0046
       4     -20.22271      0.00000        -20.22271  -0.04597     4   %  0.0168
       5     -20.31940      0.19861        -20.12079   0.05595     5   %  0.0291
       6     -20.46410      0.36211        -20.10198   0.07476     6   %  0.0412
       7     -20.65819      0.56197        -20.09622   0.08052     7   %  0.0535
       8     -20.89785      0.80719        -20.09067   0.08607     8   %  0.0658
       9     -21.18445      1.09990        -20.08454   0.09220     9   %  0.0783
      10     -21.50954      1.43160        -20.07794   0.09880    10   %  0.0905
      11     -21.87571      1.80438        -20.07133   0.10541    11   %  0.1029
      12     -22.28194      2.21724        -20.06470   0.11204    12   %  0.1153
      13     -22.71948      2.66133        -20.05815   0.11859    13   %  0.1276
      14     -23.19156      3.13966        -20.05190   0.12484    14   %  0.1399
      15     -23.69387      3.64797        -20.04590   0.13084    15   %  0.1523
      16     -24.21949      4.17930        -20.04020   0.13655    16   %  0.1645
      17     -24.77596      4.74098        -20.03498   0.14176    17   %  0.1768
      18     -25.35013      5.32011        -20.03002   0.14672    18   %  0.1890
      19     -25.95084      5.92537        -20.02546   0.15128    19   %  0.2013
      20     -26.57559      6.55442        -20.02117   0.15557    20   %  0.2136
      21     -27.21432      7.19714        -20.01718   0.15956    21   %  0.2259
      22     -27.87336      7.85980        -20.01355   0.16319    22   %  0.2382
      23     -28.54090      8.53067        -20.01023   0.16651    23   %  0.2504
      24     -29.22931      9.22206        -20.00725   0.16949    24   %  0.2627
      25     -29.93158      9.92708        -20.00450   0.17224    25   %  0.2751
      26     -30.64652     10.64445        -20.00207   0.17467    26   %  0.2875
      27     -31.37135     11.37130        -20.00005   0.17669    27   %  0.2999
      28     -32.09780     12.09955        -19.99824   0.17850    28   %  0.3121
      29     -32.83455     12.83787        -19.99668   0.18006    29   %  0.3245
      30     -33.57550     13.57991        -19.99558   0.18116    30   %  0.3368
      31     -34.31447     14.32011        -19.99436   0.18238    31   %  0.3491
      32     -35.05514     15.06162        -19.99352   0.18323    32   %  0.3613
      33     -35.79849     15.80566        -19.99283   0.18391    33   %  0.3735
      34     -36.54936     16.55703        -19.99232   0.18442    34   %  0.3858
      35     -37.29517     17.30319        -19.99198   0.18476    35   %  0.3980
      36     -38.05088     18.05909        -19.99179   0.18495    36   %  0.4104
      37     -38.79476     18.80299        -19.99176   0.18498    37   %  0.4226
      38     -39.74352     19.75189        -19.99163   0.18511    38   %  0.4382
      39     -40.48520     20.49316        -19.99204   0.18470    39   %  0.4504
      40     -41.22143     21.22898        -19.99245   0.18429    40   %  0.4627
      41     -41.95259     21.95963        -19.99296   0.18378    41   %  0.4748
      42     -42.68634     22.69278        -19.99357   0.18318    42   %  0.4871
      43     -43.41198     23.41769        -19.99429   0.18245    43   %  0.4994
      44     -44.13655     24.14145        -19.99511   0.18163    44   %  0.5117
      45     -44.84592     24.84989        -19.99603   0.18071    45   %  0.5239
      46     -45.55235     25.55534        -19.99701   0.17973    46   %  0.5361
      47     -46.26039     26.26231        -19.99808   0.17866    47   %  0.5484
      48     -46.95458     26.95533        -19.99925   0.17749    48   %  0.5606
      49     -47.64298     27.64251        -20.00047   0.17627    49   %  0.5729
      50     -48.32376     28.32199        -20.00177   0.17497    50   %  0.5851
      51     -48.99119     28.98806        -20.00312   0.17362    51   %  0.5972
      52     -49.65543     29.65092        -20.00451   0.17223    52   %  0.6094
      53     -50.30894     30.30334        -20.00559   0.17115    53   %  0.6215
      54     -50.95305     30.94618        -20.00687   0.16987    54   %  0.6336
      55     -51.59884     31.59063        -20.00820   0.16854    55   %  0.6459
      56     -52.23168     32.22202        -20.00966   0.16708    56   %  0.6581
      57     -52.84954     32.83842        -20.01112   0.16562    57   %  0.6701
      58     -53.46248     33.44989        -20.01259   0.16415    58   %  0.6823
      59     -54.06797     34.05385        -20.01411   0.16263    59   %  0.6944
      60     -54.66738     34.65170        -20.01568   0.16106    60   %  0.7066
      61     -55.25241     35.23512        -20.01729   0.15945    61   %  0.7186
      62     -55.82622     35.80732        -20.01890   0.15784    62   %  0.7306
      63     -56.39972     36.37920        -20.02052   0.15622    63   %  0.7428
      64     -56.95984     36.93764        -20.02220   0.15454    64   %  0.7549
      65     -57.50657     37.48268        -20.02389   0.15285    65   %  0.7668
      66     -58.05080     38.02524        -20.02556   0.15118    66   %  0.7789
      67     -58.58337     38.55609        -20.02728   0.14946    67   %  0.7909
      68     -59.10726     39.07826        -20.02900   0.14774    68   %  0.8029
      69     -59.62253     39.59181        -20.03072   0.14602    69   %  0.8148
      70     -60.12773     40.09528        -20.03246   0.14428    70   %  0.8268
      71     -60.63142     40.59723        -20.03419   0.14255    71   %  0.8389
      72     -61.12350     41.08753        -20.03597   0.14077    72   %  0.8509
      73     -61.60671     41.56896        -20.03775   0.13899    73   %  0.8629
      74     -62.08247     42.04295        -20.03952   0.13722    74   %  0.8749
      75     -62.55068     42.50939        -20.04130   0.13545    75   %  0.8869
      76     -63.01003     42.96694        -20.04308   0.13366    76   %  0.8989
      77     -63.45951     43.41465        -20.04486   0.13188    77   %  0.9108
      78     -63.89965     43.85302        -20.04663   0.13011    78   %  0.9227
      79     -64.33203     44.28364        -20.04839   0.12835    79   %  0.9346
      80     -64.75794     44.70779        -20.05014   0.12660    80   %  0.9466
      81     -65.17723     45.12533        -20.05191   0.12483    81   %  0.9585
      82     -65.58874     45.53506        -20.05368   0.12306    82   %  0.9705
      83     -65.99159     45.93615        -20.05544   0.12130    83   %  0.9824
      84     -66.38624     46.32904        -20.05720   0.11954    84   %  0.9943
      85     -66.77406     46.71512        -20.05894   0.11780    85   %  1.0062
      86     -67.14873     47.08805        -20.06068   0.11607    86   %  1.0178
      87     -67.51840     47.45605        -20.06236   0.11438    87   %  1.0296
      88     -67.88146     47.81741        -20.06405   0.11269    88   %  1.0413
      89     -68.23695     48.17122        -20.06573   0.11101    89   %  1.0530
      90     -68.58532     48.51792        -20.06740   0.10934    90   %  1.0647
      91     -68.92804     48.85898        -20.06906   0.10768    91   %  1.0764
      92     -69.26623     49.19551        -20.07071   0.10603    92   %  1.0882
      93     -69.59971     49.52733        -20.07238   0.10436    93   %  1.0999
      94     -69.92742     49.85337        -20.07405   0.10269    94   %  1.1117
      95     -70.24873     50.17301        -20.07572   0.10103    95   %  1.1234
      96     -70.56427     50.48690        -20.07736   0.09938    96   %  1.1351
      97     -70.87540     50.79640        -20.07900   0.09774    97   %  1.1468
      98     -71.18296     51.10232        -20.08064   0.09610    98   %  1.1586
      99     -71.48074     51.39846        -20.08229   0.09445    99   %  1.1702
     100     -71.77466     51.69079        -20.08387   0.09287   100   %  1.1817
     101     -72.06409     51.97863        -20.08545   0.09129   101   %  1.1932
     102     -72.34914     52.26212        -20.08703   0.08971   102   %  1.2047
     103     -72.63071     52.54212        -20.08859   0.08815   103   %  1.2162
     104     -72.90967     52.81952        -20.09015   0.08659   104   %  1.2277
     105     -73.18615     53.09444        -20.09171   0.08503   105   %  1.2392
     106     -73.45966     53.36639        -20.09328   0.08346   106   %  1.2506
     107     -73.72987     53.63503        -20.09484   0.08190   107   %  1.2620
     108     -73.99718     53.90078        -20.09640   0.08035   108   %  1.2734
     109     -74.26242     54.16447        -20.09794   0.07880   109   %  1.2847
     110     -74.52606     54.42657        -20.09949   0.07725   110   %  1.2960
     111     -74.78780     54.68675        -20.10105   0.07569   111   %  1.3073
     112     -75.04708     54.94447        -20.10260   0.07414   112   %  1.3185
     113     -75.30380     55.19965        -20.10415   0.07259   113   %  1.3297
     114     -75.55849     55.45279        -20.10570   0.07104   114   %  1.3408
     115     -75.81158     55.70434        -20.10724   0.06950   115   %  1.3520
     116     -76.06283     55.95404        -20.10879   0.06795   116   %  1.3632
     117     -76.31148     56.20113        -20.11035   0.06639   117   %  1.3745
     118     -76.56185     56.44994        -20.11190   0.06484   118   %  1.3860
     119     -76.80843     56.69491        -20.11353   0.06321   119   %  1.3978
     120     -77.05090     56.93577        -20.11512   0.06162   120   %  1.4097
     121     -77.29059     57.17387        -20.11672   0.06002   121   %  1.4219
     122     -77.52741     57.40908        -20.11833   0.05841   122   %  1.4344
     123     -77.75920     57.63923        -20.11997   0.05677   123   %  1.4471
     124     -77.98383     57.86222        -20.12161   0.05513   124   %  1.4599
     125     -78.20546     58.08224        -20.12322   0.05352   125   %  1.4730
     126     -78.42030     58.29537        -20.12493   0.05181   126   %  1.4862
     127     -78.63030     58.50366        -20.12664   0.05010   127   %  1.4996
     128     -78.83008     58.70166        -20.12843   0.04832   128   %  1.5129
     129     -79.02311     58.89296        -20.13016   0.04658   129   %  1.5263
     130     -79.20739     59.07542        -20.13196   0.04478   130   %  1.5398
     131     -79.38220     59.24843        -20.13377   0.04297   131   %  1.5533
     132     -79.54988     59.41428        -20.13560   0.04114   132   %  1.5670
     133     -79.70551     59.56801        -20.13750   0.03924   133   %  1.5805
     134     -79.85146     59.71211        -20.13935   0.03739   134   %  1.5941
     135     -79.98904     59.84780        -20.14123   0.03551   135   %  1.6079
     136     -80.11550     59.97230        -20.14320   0.03354   136   %  1.6217
     137     -80.23221     60.08705        -20.14515   0.03159   137   %  1.6355
     138     -80.33849     60.19131        -20.14718   0.02956   138   %  1.6495
     139     -80.43337     60.28414        -20.14922   0.02752   139   %  1.6634
     140     -80.51715     60.36586        -20.15129   0.02545   140   %  1.6773
     141     -80.59116     60.43791        -20.15325   0.02349   141   %  1.6915
     142     -80.64893     60.49429        -20.15465   0.02210   142   %  1.7043
     143     -80.68370     60.54731        -20.13639   0.04035   143   %  1.7169
     144     -80.70190     60.59259        -20.10931   0.06743   144   %  1.7189
     145     -80.70324     60.66100        -20.04225   0.13449   145   %  1.7245
     146     -80.72339     60.71576        -20.00763   0.16911   146   %  1.7257
     147     -80.71815     60.79591        -19.92224   0.25450   147   %  1.7314
     148     -80.74140     60.85072        -19.89068   0.28606   148   %  1.7321
     149     -80.72955     60.93281        -19.79674   0.38000   149   %  1.7377
     150     -80.75559     60.98873        -19.76686   0.40988   150   %  1.7381
     151     -80.73789     61.07355        -19.66435   0.51239   151   %  1.7434
     152     -80.76656     61.13087        -19.63569   0.54105   152   %  1.7436
     153     -80.74337     61.21989        -19.52348   0.65326   153   %  1.7486
     154     -80.77485     61.27863        -19.49622   0.68052   154   %  1.7486
     155     -80.74691     61.37197        -19.37494   0.80180   155   %  1.7533
     156     -80.78098     61.43166        -19.34932   0.82742   156   %  1.7531
     157     -80.74702     61.53344        -19.21358   0.96316   157   %  1.7577
     158     -80.78493     61.59524        -19.18969   0.98705   158   %  1.7573
     159     -80.74726     61.70399        -19.04327   1.13347   159   %  1.7616
     160     -80.78788     61.76667        -19.02121   1.15553   160   %  1.7611
     161     -80.74345     61.88775        -18.85570   1.32104   161   %  1.7653
     162     -80.78908     61.95514        -18.83394   1.34280   162   %  1.7646
     163     -80.73972     62.08999        -18.64973   1.52701   163   %  1.7685
     164     -80.78888     62.15875        -18.63012   1.54662   164   %  1.7677
     165     -80.73655     62.30720        -18.42935   1.74739   165   %  1.7714
     166     -80.78865     62.37740        -18.41125   1.76549   166   %  1.7705
     167     -80.73328     62.53639        -18.19689   1.97985   167   %  1.7740
     168     -80.78817     62.60871        -18.17947   1.99727   168   %  1.7731
     169     -80.72955     62.77908        -17.95047   2.22627   169   %  1.7763
     170     -80.78678     62.85273        -17.93404   2.24270   170   %  1.7753
     171     -80.72391     63.04143        -17.68247   2.49427   171   %  1.7783
     172     -80.78471     63.11807        -17.66664   2.51010   172   %  1.7772
     173     -80.71889     63.32476        -17.39413   2.78261   173   %  1.7801
     174     -80.78229     63.40285        -17.37944   2.79730   174   %  1.7790
     175     -80.70928     63.63880        -17.07048   3.10626   175   %  1.7817
     176     -80.77750     63.72089        -17.05661   3.12013   176   %  1.7806
     177     -80.70207     63.99304        -16.70903   3.46771   177   %  1.7832
     178     -80.77391     64.07750        -16.69641   3.48033   178   %  1.7820
     179     -80.69412     64.38073        -16.31339   3.86335   179   %  1.7845
     180     -80.76995     64.46855        -16.30139   3.87535   180   %  1.7833
     181     -80.68296     64.81327        -15.86969   4.30705   181   %  1.7857
     182     -80.76394     64.90569        -15.85825   4.31849   182   %  1.7845
     183     -80.79839     64.91344        -15.88494   4.29180   183   %  1.7835
     184     -80.76731     64.94813        -15.81918   4.35756   184   %  1.7847
     185     -80.79929     65.00492        -15.79437   4.38237   185   %  1.7834
     186     -80.76520     65.08637        -15.67883   4.49791   186   %  1.7848
     187     -80.79902     65.14575        -15.65327   4.52348   187   %  1.7835
     188     -80.76226     65.23760        -15.52466   4.65208   188   %  1.7850
     189     -80.79836     65.29843        -15.49993   4.67682   189   %  1.7838
     190     -80.76024     65.39408        -15.36616   4.81058   190   %  1.7853
     191     -80.79807     65.45628        -15.34179   4.83495   191   %  1.7840
     192     -80.75687     65.55780        -15.19907   4.97767   192   %  1.7856
     193     -80.79708     65.62146        -15.17562   5.00112   193   %  1.7844
     194     -80.75318     65.73157        -15.02161   5.15513   194   %  1.7859
     195     -80.79615     65.79702        -14.99913   5.17761   195   %  1.7847
     196     -80.75060     65.91258        -14.83802   5.33872   196   %  1.7863
     197     -80.79520     65.97827        -14.81693   5.35981   197   %  1.7851
     198     -80.74742     66.10108        -14.64633   5.53041   198   %  1.7867
     199     -80.79420     66.16820        -14.62600   5.55074   199   %  1.7855
     200     -80.74454     66.29793        -14.44661   5.73013   200   %  1.7870
     201     -80.79347     66.36690        -14.42657   5.75017   201   %  1.7858
     202     -80.74299     66.50045        -14.24254   5.93421   202   %  1.7874
     203     -80.79274     66.56937        -14.22337   5.95337   203   %  1.7862
     204     -80.74158     66.70717        -14.03442   6.14232   204   %  1.7877
     205     -80.79226     66.77659        -14.01567   6.16107   205   %  1.7865
     206     -80.73821     66.92151        -13.81670   6.36004   206   %  1.7881
     207     -80.79057     66.99172        -13.79885   6.37789   207   %  1.7869
     208     -80.73068     67.15690        -13.57378   6.60296   208   %  1.7886
     209     -80.78802     67.23197        -13.55604   6.62070   209   %  1.7873
     210     -80.72497     67.41541        -13.30957   6.86717   210   %  1.7890
     211     -80.78525     67.49186        -13.29340   6.88334   211   %  1.7878
     212     -80.71804     67.69847        -13.01958   7.15716   212   %  1.7895
     213     -80.78177     67.77709        -13.00469   7.17205   213   %  1.7883
     214     -80.70779     68.01724        -12.69056   7.48618   214   %  1.7900
     215     -80.77682     68.10022        -12.67660   7.50015   215   %  1.7888
     216     -80.69527     68.38671        -12.30856   7.86818   216   %  1.7906
     217     -80.77022     68.47439        -12.29583   7.88091   217   %  1.7894
     218     -80.68258     68.81930        -11.86328   8.31346   218   %  1.7913
     219     -80.76303     68.91107        -11.85197   8.32477   219   %  1.7900
     220     -80.79794     68.92029        -11.87765   8.29910   220   %  1.7890
     221     -80.76597     68.95562        -11.81035   8.36639   221   %  1.7900
     222     -80.79889     69.01237        -11.78652   8.39022   222   %  1.7887
     223     -80.76453     69.09413        -11.67040   8.50634   223   %  1.7899


           POTENTIAL ENERGY HAS STOPPED DROPPING


 **********************
 *                    *
 * JOB ENDED NORMALLY *
 *                    *
 **********************



 TOTAL JOB TIME:             0.12 SECONDS

 == MOPAC DONE ==
