 *******************************************************************************
 ** Site#:  999         For non-commercial use only           Version 21.129  **
 *******************************************************************************
 ** Cite this program as: MOPAC2016, Version: 21.129 , James J. P. Stewart,   **
 ** Stewart Computational Chemistry, web-site: HTTP://OpenMOPAC.net.          **
 *******************************************************************************
 **                                                                           **
 **                                MOPAC2016                                  **
 **                                                                           **
 *******************************************************************************

                              PM7 CALCULATION RESULTS

 *******************************************************************************
 *  CALCULATION DONE:                                Sun Nov 20 12:22:50 2022  *
 *  PM7        - The PM7 Hamiltonian to be used
 *
 *
 *
 *                 CHARGE ON SYSTEM = 0
 *
 *
 *
 *  IRC=N      - INTRINSIC REACTION COORDINATE -1 DEFINED
 *  PRECISE    - TIGHTER CRITERIA TO BE USED
 *  THREADS=1  - MULTI-THREADING NOT USED
 *  T=         - A TIME OF 172800.0 SECONDS REQUESTED
 *  DUMP=N     - RESTART FILE WRITTEN EVERY 7200.0 SECONDS REQUESTED
 *  CYCLES=    - DO A MAXIMUM OF 5000 STEPS
 *  OLDENS     - INITIAL DENSITY MATRIX READ OFF DISK
 *******************************************************************************
   pm7 threads=1 charge=0 irc=-1 oldens precise cycles=5000
 title
 title
   ATOM   CHEMICAL          X               Y               Z
  NUMBER   SYMBOL      (ANGSTROMS)     (ANGSTROMS)     (ANGSTROMS)
 
     1       C         -1.24967249  *   1.05340432  *   0.80266202  *
     2       O         -0.23757343  *   0.40185427  *   1.20451944  *
     3       O         -1.98989477  *   0.66817687  *  -0.19503651  *
     4       H         -0.57562818  *   1.54818500  *   1.82838732  *
     5       H         -1.73350010  *  -0.17720545  *  -0.64929985  *
 


          CARTESIAN COORDINATES 

    NO.       ATOM           X           Y           Z

     1         C         -1.2497      1.0534      0.8027
     2         O         -0.2376      0.4019      1.2045
     3         O         -1.9899      0.6682     -0.1950
     4         H         -0.5756      1.5482      1.8284
     5         H         -1.7335     -0.1772     -0.6493

 General Reference for PM7:
 "Optimization of Parameters for Semiempirical Methods VI: More Modifications to the 
 NDDO Approximations and Re-optimization of Parameters", J. J. P. Stewart, J. Mol. Mod., 1:32, 19 (2013)
 https://link.springer.com/article/10.1007/s00894-012-1667-x

           Empirical Formula: C H2 O2  =     5 atoms



      MOLECULAR POINT GROUP   :   Cs  


      RHF CALCULATION, NO. OF DOUBLY OCCUPIED LEVELS = 9



          HEAT OF FORMATION =     -24.727205 KCALS/MOLE


          GRADIENT NORM =   0.04739

          MOLECULAR WEIGHT =   46.03


          ESTIMATED TIME TO COMPLETE CALCULATION =        0.00 SECONDS

    FOR POINT-GROUP Cs   THERE ARE   2 UNIQUE SYMMETRY FUNCTIONS.

 STEP:   1 TIME =     0.00 SECS, INTEGRAL =      0.00 TIME LEFT: 172800.00
 STEP:   2 TIME =     0.00 SECS, INTEGRAL =      0.00 TIME LEFT: 172800.00
 STEP:   3 TIME =     0.00 SECS, INTEGRAL =      0.01 TIME LEFT: 172799.99
 STEP:   4 TIME =     0.00 SECS, INTEGRAL =      0.01 TIME LEFT: 172799.99
 STEP:   5 TIME =     0.00 SECS, INTEGRAL =      0.01 TIME LEFT: 172799.99
 STEP:   6 TIME =     0.00 SECS, INTEGRAL =      0.01 TIME LEFT: 172799.99
 STEP:   7 TIME =     0.00 SECS, INTEGRAL =      0.02 TIME LEFT: 172799.98
 STEP:   8 TIME =     0.00 SECS, INTEGRAL =      0.02 TIME LEFT: 172799.98
 STEP:   9 TIME =     0.00 SECS, INTEGRAL =      0.02 TIME LEFT: 172799.98
 STEP:  10 TIME =     0.00 SECS, INTEGRAL =      0.02 TIME LEFT: 172799.98
 STEP:  11 TIME =     0.00 SECS, INTEGRAL =      0.02 TIME LEFT: 172799.98
 STEP:  12 TIME =     0.00 SECS, INTEGRAL =      0.02 TIME LEFT: 172799.98
 STEP:  13 TIME =     0.00 SECS, INTEGRAL =      0.03 TIME LEFT: 172799.97
 STEP:  14 TIME =     0.00 SECS, INTEGRAL =      0.03 TIME LEFT: 172799.97
 STEP:  15 TIME =     0.00 SECS, INTEGRAL =      0.03 TIME LEFT: 172799.97
  Stopping critera: r_ij>5*r_ij(0)
 
           INITIAL VELOCITY IN DRC (Angstroms/Femtosecond)
        -0.07082         0.03019        -0.00001
        -0.00168        -0.04085         0.00001
         0.00799         0.01133        -0.00000
         0.79983         0.07611        -0.00002
        -0.05598         0.03268         0.00002
 
  Deltat    =   0.24 fs
  Maxcyc    =      5000
  Jloop_lim =      5000
 
  Initial distance matrix
  Bond#     i     j    Ini_value(A)
      1     1     2          1.269
      2     1     3          1.301
      3     1     4          1.323
      4     1     5          1.964
      5     2     3          2.258
      6     2     4          1.348
      7     2     5          2.451
      8     3     4          2.621
      9     3     5          0.993
     10     4     5          3.234
 
 


     POINT   POTENTIAL  +  ENERGY LOST   =   TOTAL      ERROR    REF%   MOVEMENT
       1     -24.72720      0.00000        -24.72720   0.00000     1   %  0.0000
       2     -24.72760      0.00000        -24.72760  -0.00040     2   %  0.0018
       3     -24.72883      0.00000        -24.72883  -0.00162     3   %  0.0036
       4     -24.75010      0.00000        -24.75010  -0.02290     4   %  0.0136
       5     -24.79616      0.00000        -24.79616  -0.04605     5   %  0.0236
       6     -24.86799      0.13377        -24.73422   0.01588     6   %  0.0336
       7     -24.96183      0.23779        -24.72404   0.02606     7   %  0.0434
       8     -25.08288      0.36175        -24.72112   0.02898     8   %  0.0534
       9     -25.22748      0.50902        -24.71846   0.03165     9   %  0.0633
      10     -25.39729      0.68171        -24.71558   0.03453    10   %  0.0733
      11     -25.59208      0.87959        -24.71249   0.03762    11   %  0.0833
      12     -25.80872      1.09950        -24.70922   0.04088    12   %  0.0932
      13     -26.05043      1.34450        -24.70592   0.04418    13   %  0.1031
      14     -26.31864      1.61610        -24.70253   0.04757    14   %  0.1132
      15     -26.60678      1.90776        -24.69901   0.05109    15   %  0.1231
      16     -26.91756      2.22202        -24.69554   0.05456    16   %  0.1330
      17     -27.25057      2.55850        -24.69207   0.05803    17   %  0.1429
      18     -27.61053      2.92191        -24.68862   0.06149    18   %  0.1530
      19     -27.98899      3.30390        -24.68509   0.06502    19   %  0.1630
      20     -28.38673      3.70509        -24.68164   0.06846    20   %  0.1729
      21     -28.80619      4.12792        -24.67827   0.07183    21   %  0.1829
      22     -29.24138      4.56644        -24.67494   0.07516    22   %  0.1928
      23     -29.70139      5.02966        -24.67173   0.07838    23   %  0.2028
      24     -30.17419      5.50568        -24.66852   0.08159    24   %  0.2127
      25     -30.66720      6.00176        -24.66545   0.08466    25   %  0.2226
      26     -31.18015      6.51771        -24.66244   0.08767    26   %  0.2327
      27     -31.70597      7.04648        -24.65949   0.09061    27   %  0.2426
      28     -32.24822      7.59155        -24.65667   0.09343    28   %  0.2525
      29     -32.80660      8.15264        -24.65395   0.09615    29   %  0.2625
      30     -33.37784      8.72651        -24.65133   0.09877    30   %  0.2724
      31     -33.95884      9.31001        -24.64883   0.10128    31   %  0.2823
      32     -34.56185      9.91539        -24.64645   0.10365    32   %  0.2923
      33     -35.16550     10.52136        -24.64414   0.10596    33   %  0.3022
      34     -35.78767     11.14567        -24.64200   0.10810    34   %  0.3121
      35     -36.41420     11.77426        -24.63994   0.11016    35   %  0.3220
      36     -37.05518     12.41717        -24.63802   0.11209    36   %  0.3319
      37     -37.70620     13.07002        -24.63619   0.11392    37   %  0.3419
      38     -38.36841     13.73396        -24.63446   0.11565    38   %  0.3518
      39     -39.03339     14.40056        -24.63283   0.11727    39   %  0.3617
      40     -39.70707     15.07573        -24.63134   0.11877    40   %  0.3716
      41     -40.38901     15.75906        -24.62994   0.12016    41   %  0.3815
      42     -41.07493     16.44628        -24.62865   0.12145    42   %  0.3914
      43     -41.76217     17.13470        -24.62747   0.12263    43   %  0.4013
      44     -42.45342     17.82702        -24.62640   0.12370    44   %  0.4111
      45     -43.15472     18.52929        -24.62543   0.12467    45   %  0.4210
      46     -43.85635     19.23180        -24.62455   0.12556    46   %  0.4308
      47     -44.56184     19.93808        -24.62376   0.12634    47   %  0.4407
      48     -45.26985     20.64678        -24.62307   0.12704    48   %  0.4505
      49     -45.98064     21.35818        -24.62246   0.12764    49   %  0.4604
      50     -46.69939     22.07745        -24.62194   0.12817    50   %  0.4703
      51     -47.42041     22.79892        -24.62149   0.12861    51   %  0.4802
      52     -48.12981     23.50868        -24.62113   0.12897    52   %  0.4900
      53     -48.84994     24.22906        -24.62088   0.12922    53   %  0.4999
      54     -49.57248     24.95180        -24.62068   0.12943    54   %  0.5098
      55     -50.29283     25.67228        -24.62055   0.12955    55   %  0.5197
      56     -51.00753     26.38703        -24.62050   0.12960    56   %  0.5296
      57     -51.71712     27.09660        -24.62052   0.12958    57   %  0.5393
      58     -52.71564     28.09526        -24.62038   0.12973    58   %  0.5531
      59     -53.42670     28.80600        -24.62070   0.12940    59   %  0.5630
      60     -54.13373     29.51279        -24.62094   0.12917    60   %  0.5728
      61     -54.83594     30.21471        -24.62123   0.12887    61   %  0.5826
      62     -55.53544     30.91388        -24.62155   0.12855    62   %  0.5924
      63     -56.23418     31.61224        -24.62194   0.12816    63   %  0.6022
      64     -56.92094     32.29855        -24.62239   0.12772    64   %  0.6119
      65     -57.61246     32.98959        -24.62287   0.12723    65   %  0.6217
      66     -58.29524     33.67182        -24.62342   0.12668    66   %  0.6314
      67     -58.98032     34.35631        -24.62401   0.12610    67   %  0.6412
      68     -59.65786     35.03321        -24.62465   0.12545    68   %  0.6510
      69     -60.32185     35.69651        -24.62534   0.12476    69   %  0.6606
      70     -60.99080     36.36475        -24.62605   0.12405    70   %  0.6704
      71     -61.65478     37.02796        -24.62682   0.12328    71   %  0.6802
      72     -62.31192     37.68429        -24.62763   0.12247    72   %  0.6899
      73     -62.95775     38.32927        -24.62848   0.12163    73   %  0.6996
      74     -63.60380     38.97446        -24.62934   0.12076    74   %  0.7093
      75     -64.24255     39.61229        -24.63026   0.11985    75   %  0.7190
      76     -64.86856     40.23735        -24.63120   0.11890    76   %  0.7286
      77     -65.49596     40.86380        -24.63216   0.11794    77   %  0.7383
      78     -66.10898     41.47581        -24.63317   0.11693    78   %  0.7479
      79     -66.71519     42.08101        -24.63418   0.11592    79   %  0.7574
      80     -67.31304     42.67782        -24.63522   0.11488    80   %  0.7669
      81     -67.90706     43.27079        -24.63628   0.11383    81   %  0.7765
      82     -68.49174     43.85437        -24.63737   0.11274    82   %  0.7860
      83     -69.06917     44.43070        -24.63847   0.11163    83   %  0.7955
      84     -69.64668     45.00708        -24.63959   0.11051    84   %  0.8051
      85     -70.20772     45.56695        -24.64077   0.10934    85   %  0.8145
      86     -70.76260     46.12068        -24.64192   0.10818    86   %  0.8239
      87     -71.31443     46.67133        -24.64310   0.10700    87   %  0.8334
      88     -71.85811     47.21379        -24.64432   0.10579    88   %  0.8429
      89     -72.39597     47.75043        -24.64555   0.10456    89   %  0.8523
      90     -72.92440     48.27760        -24.64680   0.10330    90   %  0.8618
      91     -73.44849     48.80043        -24.64806   0.10204    91   %  0.8713
      92     -73.95615     49.30679        -24.64935   0.10075    92   %  0.8806
      93     -74.46159     49.81097        -24.65062   0.09949    93   %  0.8900
      94     -74.95948     50.30756        -24.65192   0.09818    94   %  0.8994
      95     -75.45216     50.79893        -24.65324   0.09687    95   %  0.9088
      96     -75.93631     51.28172        -24.65458   0.09552    96   %  0.9182
      97     -76.40704     51.75111        -24.65594   0.09417    97   %  0.9275
      98     -76.87196     52.21468        -24.65728   0.09283    98   %  0.9368
      99     -77.32467     52.66604        -24.65863   0.09147    99   %  0.9460
     100     -77.77076     53.11078        -24.65998   0.09013   100   %  0.9552
     101     -78.21193     53.55059        -24.66134   0.08877   101   %  0.9644
     102     -78.64530     53.98258        -24.66273   0.08738   102   %  0.9737
     103     -79.06638     54.40226        -24.66413   0.08598   103   %  0.9828
     104     -79.48166     54.81615        -24.66551   0.08459   104   %  0.9920
     105     -79.88519     55.21827        -24.66691   0.08319   105   %  1.0011
     106     -80.28200     55.61370        -24.66830   0.08180   106   %  1.0102
     107     -80.67378     56.00407        -24.66971   0.08040   107   %  1.0193
     108     -81.05059     56.37945        -24.67114   0.07897   108   %  1.0283
     109     -81.42383     56.75130        -24.67253   0.07757   109   %  1.0373
     110     -81.78345     57.10949        -24.67396   0.07615   110   %  1.0462
     111     -82.13941     57.46405        -24.67535   0.07475   111   %  1.0552
     112     -82.48798     57.81120        -24.67679   0.07332   112   %  1.0642
     113     -82.82464     58.14641        -24.67823   0.07187   113   %  1.0731
     114     -83.15441     58.47475        -24.67965   0.07045   114   %  1.0819
     115     -83.47316     58.79207        -24.68109   0.06901   115   %  1.0907
     116     -83.78573     59.10322        -24.68251   0.06760   116   %  1.0995
     117     -84.08759     59.40364        -24.68395   0.06616   117   %  1.1082
     118     -84.38266     59.69729        -24.68537   0.06474   118   %  1.1170
     119     -84.67215     59.98535        -24.68680   0.06330   119   %  1.1257
     120     -84.94866     60.26040        -24.68826   0.06184   120   %  1.1343
     121     -85.22053     60.53084        -24.68969   0.06042   121   %  1.1430
     122     -85.48021     60.78907        -24.69115   0.05896   122   %  1.1515
     123     -85.73502     61.04245        -24.69257   0.05753   123   %  1.1601
     124     -85.98216     61.28813        -24.69403   0.05607   124   %  1.1687
     125     -86.21850     61.52299        -24.69550   0.05460   125   %  1.1772
     126     -86.44764     61.75069        -24.69695   0.05315   126   %  1.1856
     127     -86.66664     61.96823        -24.69841   0.05169   127   %  1.1940
     128     -86.87879     62.17894        -24.69985   0.05025   128   %  1.2023
     129     -87.08090     62.37959        -24.70131   0.04879   129   %  1.2106
     130     -87.27569     62.57294        -24.70275   0.04735   130   %  1.2188
     131     -87.46390     62.75970        -24.70420   0.04590   131   %  1.2271
     132     -87.64418     62.93849        -24.70568   0.04442   132   %  1.2353
     133     -87.81455     63.10738        -24.70717   0.04293   133   %  1.2434
     134     -87.97764     63.26900        -24.70864   0.04147   134   %  1.2515
     135     -88.13098     63.42086        -24.71012   0.03998   135   %  1.2595
     136     -88.27664     63.56505        -24.71158   0.03852   136   %  1.2674
     137     -88.41509     63.70204        -24.71306   0.03705   137   %  1.2753
     138     -88.54528     63.83073        -24.71455   0.03555   138   %  1.2832
     139     -88.66821     63.95215        -24.71606   0.03405   139   %  1.2910
     140     -88.78293     64.06534        -24.71759   0.03251   140   %  1.2988
     141     -88.88806     64.16893        -24.71913   0.03098   141   %  1.3065
     142     -88.98517     64.26453        -24.72064   0.02946   142   %  1.3140
     143     -89.07453     64.35237        -24.72216   0.02794   143   %  1.3215
     144     -89.15687     64.43317        -24.72370   0.02640   144   %  1.3290
     145     -89.23070     64.50541        -24.72529   0.02481   145   %  1.3364
     146     -89.29706     64.57016        -24.72689   0.02321   146   %  1.3437
     147     -89.35486     64.62632        -24.72854   0.02156   147   %  1.3509
     148     -89.40486     64.67467        -24.73019   0.01991   148   %  1.3580
     149     -89.44765     64.71575        -24.73190   0.01820   149   %  1.3651
     150     -89.48259     64.74887        -24.73373   0.01638   150   %  1.3721
     151     -89.50965     64.77399        -24.73567   0.01444   151   %  1.3790
     152     -89.52904     64.79125        -24.73779   0.01232   152   %  1.3857
     153     -89.54076     64.80047        -24.74029   0.00981   153   %  1.3922
     154     -89.54485     64.80112        -24.74373   0.00638   154   %  1.3969
     155     -89.54013     64.80762        -24.73251   0.01759   155   %  1.3952
     156     -89.54249     64.82019        -24.72230   0.02780   156   %  1.3974
     157     -89.53524     64.84235        -24.69289   0.05722   157   %  1.3984
     158     -89.54273     64.88756        -24.65517   0.09494   158   %  1.3982
     159     -89.53407     64.94046        -24.59361   0.15650   159   %  1.3983
     160     -89.54266     64.99287        -24.54978   0.20032   160   %  1.3987
     161     -89.53356     65.05012        -24.48345   0.26666   161   %  1.3980
     162     -89.54283     65.10371        -24.43912   0.31098   162   %  1.3992
     163     -89.53330     65.16123        -24.37207   0.37803   163   %  1.3975
     164     -89.54287     65.21522        -24.32765   0.42245   164   %  1.3996
     165     -89.53327     65.27247        -24.26081   0.48930   165   %  1.3969
     166     -89.54285     65.32635        -24.21649   0.53361   166   %  1.4000
     167     -89.53309     65.38383        -24.14926   0.60084   167   %  1.3962
     168     -89.54312     65.43651        -24.10661   0.64349   168   %  1.4003
     169     -89.53264     65.49335        -24.03929   0.71082   169   %  1.3955
     170     -89.54321     65.54600        -23.99720   0.75290   170   %  1.4005
     171     -89.53236     65.60296        -23.92940   0.82070   171   %  1.3950
     172     -89.54350     65.65443        -23.88907   0.86104   172   %  1.4006
     173     -89.53197     65.71061        -23.82135   0.92875   173   %  1.3946
     174     -89.54359     65.76188        -23.78171   0.96839   174   %  1.4008
     175     -89.53162     65.81834        -23.71328   1.03683   175   %  1.3943
     176     -89.54359     65.87038        -23.67321   1.07690   176   %  1.4010
     177     -89.53165     65.92705        -23.60461   1.14550   177   %  1.3941
     178     -89.54369     65.97841        -23.56528   1.18483   178   %  1.4010
     179     -89.53088     66.03626        -23.49462   1.25548   179   %  1.3939
     180     -89.54385     66.08848        -23.45537   1.29474   180   %  1.4011
     181     -89.53046     66.14685        -23.38361   1.36649   181   %  1.3939
     182     -89.54412     66.19810        -23.34602   1.40408   182   %  1.4010
     183     -89.53009     66.25561        -23.27449   1.47562   183   %  1.3938
     184     -89.54417     66.30673        -23.23744   1.51266   184   %  1.4011
     185     -89.52957     66.36501        -23.16455   1.58555   185   %  1.3938
     186     -89.54417     66.41749        -23.12668   1.62342   186   %  1.4013
     187     -89.52981     66.47566        -23.05415   1.69596   187   %  1.3939
     188     -89.54427     66.52681        -23.01747   1.73264   188   %  1.4013
     189     -89.52897     66.58594        -22.94303   1.80708   189   %  1.3939
     190     -89.54433     66.63843        -22.90591   1.84420   190   %  1.4014
     191     -89.52812     66.69950        -22.82862   1.92149   191   %  1.3938
     192     -89.54459     66.75183        -22.79276   1.95734   192   %  1.4013


           POTENTIAL ENERGY HAS STOPPED DROPPING


 **********************
 *                    *
 * JOB ENDED NORMALLY *
 *                    *
 **********************



 TOTAL JOB TIME:             0.11 SECONDS

 == MOPAC DONE ==
