 *******************************************************************************
 ** Site#:  999         For non-commercial use only           Version 21.129  **
 *******************************************************************************
 ** Cite this program as: MOPAC2016, Version: 21.129 , James J. P. Stewart,   **
 ** Stewart Computational Chemistry, web-site: HTTP://OpenMOPAC.net.          **
 *******************************************************************************
 **                                                                           **
 **                                MOPAC2016                                  **
 **                                                                           **
 *******************************************************************************

                              PM7 CALCULATION RESULTS

 *******************************************************************************
 *  CALCULATION DONE:                                Sun Nov 20 12:22:50 2022  *
 *  PM7        - The PM7 Hamiltonian to be used
 *
 *
 *
 *                 CHARGE ON SYSTEM = 0
 *
 *
 *
 *  IRC=N      - INTRINSIC REACTION COORDINATE  1 DEFINED
 *  PRECISE    - TIGHTER CRITERIA TO BE USED
 *  THREADS=1  - MULTI-THREADING NOT USED
 *  T=         - A TIME OF 172800.0 SECONDS REQUESTED
 *  DUMP=N     - RESTART FILE WRITTEN EVERY 7200.0 SECONDS REQUESTED
 *  CYCLES=    - DO A MAXIMUM OF 5000 STEPS
 *  OLDENS     - INITIAL DENSITY MATRIX READ OFF DISK
 *******************************************************************************
   pm7 threads=1 charge=0 irc= 1 oldens precise cycles=5000
 title
 title
   ATOM   CHEMICAL          X               Y               Z
  NUMBER   SYMBOL      (ANGSTROMS)     (ANGSTROMS)     (ANGSTROMS)
 
     1       C          0.00000000  *   0.00000000  *   0.00000000  *
     2       O          1.14432934  *   0.00000000  *   0.00000000  *
     3       O          0.26699497  *   2.46148939  *   0.00000000  *
     4       H          1.12469611  *   2.33211294  *   0.41301180  *
     5       H          0.44578622  *   2.91160653  *  -0.82363178  *
 


          CARTESIAN COORDINATES 

    NO.       ATOM           X           Y           Z

     1         C          0.0000      0.0000      0.0000
     2         O          1.1443      0.0000      0.0000
     3         O          0.2670      2.4615      0.0000
     4         H          1.1247      2.3321      0.4130
     5         H          0.4458      2.9116     -0.8236

 General Reference for PM7:
 "Optimization of Parameters for Semiempirical Methods VI: More Modifications to the 
 NDDO Approximations and Re-optimization of Parameters", J. J. P. Stewart, J. Mol. Mod., 1:32, 19 (2013)
 https://link.springer.com/article/10.1007/s00894-012-1667-x

           Empirical Formula: C H2 O2  =     5 atoms



      MOLECULAR POINT GROUP   :   C1  


      RHF CALCULATION, NO. OF DOUBLY OCCUPIED LEVELS = 9



          HEAT OF FORMATION =     -78.803363 KCALS/MOLE


          GRADIENT NORM =   2.34493

          MOLECULAR WEIGHT =   46.03


          ESTIMATED TIME TO COMPLETE CALCULATION =        0.00 SECONDS

    FOR POINT-GROUP C1   THERE ARE   1 UNIQUE SYMMETRY FUNCTIONS.

 STEP:   1 TIME =     0.00 SECS, INTEGRAL =      0.00 TIME LEFT: 172800.00
 STEP:   2 TIME =     0.00 SECS, INTEGRAL =      0.01 TIME LEFT: 172799.99
 STEP:   3 TIME =     0.00 SECS, INTEGRAL =      0.01 TIME LEFT: 172799.99
 STEP:   4 TIME =     0.00 SECS, INTEGRAL =      0.01 TIME LEFT: 172799.99
 STEP:   5 TIME =     0.00 SECS, INTEGRAL =      0.01 TIME LEFT: 172799.99
 STEP:   6 TIME =     0.00 SECS, INTEGRAL =      0.02 TIME LEFT: 172799.98
 STEP:   7 TIME =     0.00 SECS, INTEGRAL =      0.02 TIME LEFT: 172799.98
 STEP:   8 TIME =     0.00 SECS, INTEGRAL =      0.02 TIME LEFT: 172799.98
 STEP:   9 TIME =     0.00 SECS, INTEGRAL =      0.02 TIME LEFT: 172799.98
 STEP:  10 TIME =     0.00 SECS, INTEGRAL =      0.02 TIME LEFT: 172799.98
 STEP:  11 TIME =     0.00 SECS, INTEGRAL =      0.02 TIME LEFT: 172799.98
 STEP:  12 TIME =     0.00 SECS, INTEGRAL =      0.02 TIME LEFT: 172799.98
 STEP:  13 TIME =     0.00 SECS, INTEGRAL =      0.03 TIME LEFT: 172799.97
 STEP:  14 TIME =     0.00 SECS, INTEGRAL =      0.03 TIME LEFT: 172799.97
 STEP:  15 TIME =     0.00 SECS, INTEGRAL =      0.03 TIME LEFT: 172799.97
  Stopping critera: r_ij>5*r_ij(0)
 
           INITIAL VELOCITY IN DRC (Angstroms/Femtosecond)
         0.00995        -0.11919        -0.00493
         0.00997        -0.05863         0.01377
        -0.01696         0.15445         0.00182
         0.00294        -0.34098        -0.24121
        -0.01067         0.24030         0.05239
 
  Deltat    =   0.24 fs
  Maxcyc    =      5000
  Jloop_lim =      5000
 
  Initial distance matrix
  Bond#     i     j    Ini_value(A)
      1     1     2          1.144
      2     1     3          2.476
      3     1     4          2.622
      4     1     5          3.059
      5     2     3          2.613
      6     2     4          2.368
      7     2     5          3.105
      8     3     4          0.961
      9     3     5          0.955
     10     4     5          1.525
 
 


     POINT   POTENTIAL  +  ENERGY LOST   =   TOTAL      ERROR    REF%   MOVEMENT
       1     -78.80336      0.00000        -78.80336   0.00000     1   %  0.0000
       2     -78.80255      0.00000        -78.80255   0.00082     2   %  0.0017
       3     -78.80173      0.00000        -78.80173   0.00163     3   %  0.0034
       4     -78.79454      0.00000        -78.79454   0.00883     4   %  0.0187
       5     -78.78748      0.00000        -78.78748   0.01588     5   %  0.0342
       6     -78.78065      0.00000        -78.78065   0.02271     6   %  0.0497
       7     -78.77407      0.00000        -78.77407   0.02930     7   %  0.0652
       8     -78.76769      0.00000        -78.76769   0.03568     8   %  0.0807
       9     -78.76144      0.00000        -78.76144   0.04192     9   %  0.0963
      10     -78.75545      0.00000        -78.75545   0.04792    10   %  0.1118
      11     -78.74977      0.00000        -78.74977   0.05359    11   %  0.1273
      12     -78.74451      0.00000        -78.74451   0.05885    12   %  0.1427
      13     -78.73982      0.00000        -78.73982   0.06354    13   %  0.1580
      14     -78.73577      0.00000        -78.73577   0.00405    14   %  0.1731
      15     -78.73456      0.03190        -78.70267   0.03715    15   %  0.1718
      16     -78.74384      0.06846        -78.67538   0.06444    16   %  0.1707
      17     -78.74195      0.11471        -78.62725   0.11257    17   %  0.1706
      18     -78.74935      0.16493        -78.58442   0.15539    18   %  0.1697
      19     -78.74864      0.21442        -78.53421   0.20561    19   %  0.1698
      20     -78.75432      0.26509        -78.48923   0.25059    20   %  0.1690
      21     -78.75504      0.31451        -78.44053   0.29929    21   %  0.1692
      22     -78.75908      0.36564        -78.39344   0.34638    22   %  0.1686
      23     -78.76078      0.41597        -78.34480   0.39502    23   %  0.1689
      24     -78.76404      0.46713        -78.29691   0.44291    24   %  0.1684
      25     -78.76606      0.51741        -78.24864   0.49118    25   %  0.1689
      26     -78.76904      0.56763        -78.20141   0.53841    26   %  0.1686
      27     -78.77091      0.61735        -78.15356   0.58625    27   %  0.1692
      28     -78.77358      0.66784        -78.10574   0.63408    28   %  0.1690
      29     -78.77588      0.71706        -78.05883   0.68099    29   %  0.1696
      30     -78.77784      0.76720        -78.01065   0.72917    30   %  0.1696
      31     -78.78014      0.81759        -77.96255   0.77727    31   %  0.1704
      32     -78.78205      0.86907        -77.91298   0.82684    32   %  0.1704
      33     -78.78468      0.91937        -77.86531   0.87451    33   %  0.1713
      34     -78.78612      0.97013        -77.81600   0.92382    34   %  0.1714
      35     -78.78867      1.02068        -77.76799   0.97183    35   %  0.1724
      36     -78.79042      1.07075        -77.71968   1.02014    36   %  0.1726
      37     -78.79228      1.12134        -77.67094   1.06888    37   %  0.1737
      38     -78.79458      1.17122        -77.62336   1.11646    38   %  0.1740
      39     -78.79563      1.22233        -77.57331   1.16651    39   %  0.1751
      40     -78.79868      1.27216        -77.52651   1.21331    40   %  0.1754
      41     -78.79900      1.32308        -77.47592   1.26390    41   %  0.1767
      42     -78.80220      1.37375        -77.42845   1.31137    42   %  0.1770
      43     -78.80241      1.42560        -77.37681   1.36301    43   %  0.1783
      44     -78.80588      1.47623        -77.32965   1.41017    44   %  0.1787
      45     -78.80557      1.52824        -77.27733   1.46249    45   %  0.1801
      46     -78.80962      1.57814        -77.23148   1.50834    46   %  0.1805
      47     -78.80846      1.63006        -77.17840   1.56142    47   %  0.1819
      48     -78.81311      1.68012        -77.13299   1.60683    48   %  0.1823
      49     -78.81175      1.73123        -77.08052   1.65930    49   %  0.1838
      50     -78.81635      1.78049        -77.03586   1.70396    50   %  0.1842
      51     -78.81467      1.83171        -76.98296   1.75685    51   %  0.1858
      52     -78.81925      1.88222        -76.93704   1.80278    52   %  0.1862
      53     -78.81767      1.93461        -76.88306   1.85676    53   %  0.1878
      54     -78.82255      1.98451        -76.83804   1.90178    54   %  0.1882
      55     -78.82049      2.03614        -76.78436   1.95546    55   %  0.1898
      56     -78.82526      2.08681        -76.73844   2.00138    56   %  0.1903
      57     -78.82360      2.13876        -76.68483   2.05499    57   %  0.1919
      58     -78.82792      2.18974        -76.63819   2.10163    58   %  0.1924
      59     -78.82646      2.24218        -76.58428   2.15554    59   %  0.1939
      60     -78.83076      2.29296        -76.53780   2.20202    60   %  0.1945
      61     -78.82938      2.34460        -76.48477   2.25505    61   %  0.1961
      62     -78.83345      2.39466        -76.43879   2.30103    62   %  0.1966
      63     -78.83181      2.44683        -76.38498   2.35483    63   %  0.1982
      64     -78.83711      2.49633        -76.34079   2.39903    64   %  0.1989
      65     -78.83455      2.54863        -76.28592   2.45390    65   %  0.2007
      66     -78.84041      2.59889        -76.24152   2.49830    66   %  0.2014
      67     -78.83768      2.65130        -76.18638   2.55344    67   %  0.2032
      68     -78.84330      2.70211        -76.14120   2.59862    68   %  0.2038
      69     -78.84057      2.75537        -76.08521   2.65461    69   %  0.2056
      70     -78.84630      2.80639        -76.03990   2.69992    70   %  0.2063
      71     -78.84379      2.85843        -75.98536   2.75445    71   %  0.2080
      72     -78.84916      2.90784        -75.94131   2.79850    72   %  0.2087
      73     -78.84623      2.95998        -75.88625   2.85357    73   %  0.2105
      74     -78.85194      3.00993        -75.84201   2.89781    74   %  0.2112
      75     -78.84838      3.06348        -75.78490   2.95492    75   %  0.2130
      76     -78.85501      3.11325        -75.74176   2.99806    76   %  0.2136
      77     -78.85027      3.16710        -75.68317   3.05665    77   %  0.2155
      78     -78.85775      3.21759        -75.64016   3.09966    78   %  0.2160
      79     -78.85286      3.27072        -75.58214   3.15768    79   %  0.2179
      80     -78.86031      3.32020        -75.54011   3.19971    80   %  0.2184
      81     -78.85514      3.37292        -75.48222   3.25760    81   %  0.2203
      82     -78.86251      3.42345        -75.43906   3.30076    82   %  0.2208
      83     -78.85720      3.47804        -75.37916   3.36065    83   %  0.2227
      84     -78.86503      3.52907        -75.33596   3.40385    84   %  0.2232
      85     -78.85958      3.58286        -75.27672   3.46310    85   %  0.2250
      86     -78.86729      3.63322        -75.23407   3.50574    86   %  0.2256
      87     -78.86141      3.68779        -75.17362   3.56620    87   %  0.2274
      88     -78.86974      3.73833        -75.13141   3.60840    88   %  0.2279
      89     -78.86339      3.79267        -75.07072   3.66910    89   %  0.2297
      90     -78.87187      3.84361        -75.02825   3.71157    90   %  0.2302
      91     -78.86526      3.89887        -74.96639   3.77343    91   %  0.2321
      92     -78.87438      3.94888        -74.92550   3.81432    92   %  0.2325
      93     -78.86651      4.00447        -74.86204   3.87777    93   %  0.2344
      94     -78.87682      4.05439        -74.82243   3.91739    94   %  0.2348
      95     -78.86810      4.10964        -74.75846   3.98136    95   %  0.2367
      96     -78.87907      4.15923        -74.71984   4.01998    96   %  0.2370
      97     -78.86921      4.21572        -74.65349   4.08633    97   %  0.2390
      98     -78.88127      4.26658        -74.61469   4.12513    98   %  0.2393
      99     -78.87088      4.32347        -74.54741   4.19241    99   %  0.2412
     100     -78.88334      4.37444        -74.50890   4.23092   100   %  0.2415
     101     -78.87293      4.43068        -74.44226   4.29756   101   %  0.2435
     102     -78.88527      4.48131        -74.40396   4.33586   102   %  0.2438
     103     -78.87452      4.53831        -74.33622   4.40360   103   %  0.2457
     104     -78.88740      4.58860        -74.29880   4.44102   104   %  0.2460
     105     -78.87631      4.64477        -74.23154   4.50828   105   %  0.2479
     106     -78.88919      4.69547        -74.19372   4.54610   106   %  0.2482
     107     -78.87835      4.75172        -74.12663   4.61319   107   %  0.2502
     108     -78.89112      4.80172        -74.08940   4.65042   108   %  0.2504
     109     -78.87966      4.85866        -74.02100   4.71882   109   %  0.2524
     110     -78.89308      4.90903        -73.98405   4.75577   110   %  0.2526
     111     -78.88087      4.96688        -73.91400   4.82582   111   %  0.2546
     112     -78.89511      5.01713        -73.87798   4.86184   112   %  0.2549
     113     -78.88240      5.07444        -73.80795   4.93187   113   %  0.2569
     114     -78.89683      5.12540        -73.77142   4.96840   114   %  0.2571
     115     -78.88443      5.18261        -73.70181   5.03801   115   %  0.2591
     116     -78.89867      5.23252        -73.66615   5.07367   116   %  0.2593
     117     -78.88561      5.29030        -73.59532   5.14450   117   %  0.2614
     118     -78.90050      5.34081        -73.55969   5.18013   118   %  0.2615
     119     -78.88650      5.40027        -73.48623   5.25359   119   %  0.2637
     120     -78.90244      5.45110        -73.45134   5.28848   120   %  0.2638
     121     -78.88721      5.51174        -73.37547   5.36435   121   %  0.2660
     122     -78.90428      5.56340        -73.34088   5.39894   122   %  0.2661
     123     -78.88808      5.62528        -73.26280   5.47702   123   %  0.2683
     124     -78.90614      5.67703        -73.22911   5.51071   124   %  0.2684
     125     -78.88958      5.73819        -73.15139   5.58843   125   %  0.2706
     126     -78.90791      5.78893        -73.11897   5.62084   126   %  0.2707
     127     -78.89096      5.84972        -73.04124   5.69858   127   %  0.2730
     128     -78.90963      5.90027        -73.00936   5.73046   128   %  0.2730
     129     -78.89136      5.96328        -72.92808   5.81174   129   %  0.2754
     130     -78.91138      6.01530        -72.89609   5.84373   130   %  0.2754
     131     -78.89175      6.08062        -72.81113   5.92869   131   %  0.2779
     132     -78.91312      6.13319        -72.77994   5.95988   132   %  0.2778
     133     -78.89199      6.20049        -72.69149   6.04833   133   %  0.2804
     134     -78.91481      6.25433        -72.66048   6.07934   134   %  0.2803
     135     -78.89272      6.32298        -72.56974   6.17008   135   %  0.2829
     136     -78.91646      6.37663        -72.53983   6.19999   136   %  0.2828
     137     -78.89415      6.44466        -72.44949   6.29033   137   %  0.2855
     138     -78.91809      6.49753        -72.42056   6.31926   138   %  0.2853
     139     -78.89503      6.56631        -72.32873   6.41109   139   %  0.2880
     140     -78.91969      6.61964        -72.30005   6.43977   140   %  0.2879
     141     -78.89598      6.68938        -72.20660   6.53322   141   %  0.2906
     142     -78.92125      6.74241        -72.17884   6.56098   142   %  0.2904
     143     -78.89697      6.81264        -72.08433   6.65549   143   %  0.2933
     144     -78.92282      6.86569        -72.05713   6.68269   144   %  0.2930
     145     -78.89680      6.93901        -71.95779   6.78202   145   %  0.2960
     146     -78.92433      6.99389        -71.93044   6.80938   146   %  0.2957
     147     -78.89705      7.06976        -71.82729   6.91253   147   %  0.2987
     148     -78.92576      7.12482        -71.80095   6.93887   148   %  0.2984
     149     -78.89651      7.20435        -71.69216   7.04766   149   %  0.3015
     150     -78.92709      7.26035        -71.66674   7.07308   150   %  0.3012
     151     -78.89689      7.34165        -71.55524   7.18458   151   %  0.3044
     152     -78.92857      7.39809        -71.53048   7.20934   152   %  0.3040
     153     -78.89819      7.47932        -71.41887   7.32095   153   %  0.3072
     154     -78.93001      7.53490        -71.39511   7.34471   154   %  0.3068
     155     -78.89817      7.61891        -71.27926   7.46056   155   %  0.3101
     156     -78.93144      7.67615        -71.25529   7.48453   156   %  0.3097
     157     -78.89902      7.76156        -71.13746   7.60236   157   %  0.3130
     158     -78.93292      7.81924        -71.11368   7.62614   158   %  0.3126
     159     -78.90083      7.90405        -70.99678   7.74304   159   %  0.3159
     160     -78.93451      7.96125        -70.97327   7.76655   160   %  0.3155
     161     -78.90122      8.04812        -70.85310   7.88672   161   %  0.3189
     162     -78.93577      8.10592        -70.82986   7.90996   162   %  0.3184
     163     -78.90145      8.19571        -70.70574   8.03408   163   %  0.3219
     164     -78.93705      8.25396        -70.68309   8.05673   164   %  0.3214
     165     -78.90182      8.34587        -70.55595   8.18387   165   %  0.3249
     166     -78.93832      8.40446        -70.53386   8.20596   166   %  0.3244
     167     -78.90207      8.49886        -70.40321   8.33661   167   %  0.3280
     168     -78.93955      8.55796        -70.38159   8.35823   168   %  0.3275
     169     -78.90266      8.65427        -70.24839   8.49143   169   %  0.3311
     170     -78.94078      8.71332        -70.22746   8.51236   170   %  0.3305
     171     -78.90260      8.81281        -70.08979   8.65003   171   %  0.3342
     172     -78.94197      8.87290        -70.06907   8.67075   172   %  0.3337
     173     -78.90339      8.97407        -69.92932   8.81050   173   %  0.3374
     174     -78.94346      9.03487        -69.90859   8.83123   174   %  0.3368
     175     -78.90375      9.13803        -69.76572   8.97410   175   %  0.3406
     176     -78.94442      9.19874        -69.74568   8.99414   176   %  0.3400
     177     -78.90377      9.30601        -69.59775   9.14207   177   %  0.3438
     178     -78.94561      9.36755        -69.57806   9.16176   178   %  0.3432
     179     -78.90255      9.48011        -69.42244   9.31737   179   %  0.3471
     180     -78.94640      9.54353        -69.40287   9.33695   180   %  0.3464
     181     -78.90284      9.66002        -69.24283   9.49699   181   %  0.3504
     182     -78.94737      9.72306        -69.22431   9.51551   182   %  0.3497
     183     -78.90175      9.84536        -69.05639   9.68343   183   %  0.3538
     184     -78.94833      9.91060        -69.03773   9.70209   184   %  0.3531
     185     -78.90298     10.03416        -68.86882   9.87100   185   %  0.3572
     186     -78.94974     10.09909        -68.85065   9.88917   186   %  0.3565
     187     -78.90232     10.22675        -68.67556  10.06425   187   %  0.3606
     188     -78.95048     10.29300        -68.65748  10.08234   188   %  0.3599
     189     -78.90242     10.42551        -68.47691  10.26291   189   %  0.3641
     190     -78.95131     10.49163        -68.45968  10.28014   190   %  0.3633
     191     -78.90172     10.62982        -68.27190  10.46792   191   %  0.3676
     192     -78.95218     10.69738        -68.25481  10.48501   192   %  0.3669
     193     -78.90203     10.83897        -68.06307  10.67675   193   %  0.3711
     194     -78.95295     10.90614        -68.04681  10.69300   194   %  0.3704
     195     -78.90178     11.05322        -67.84856  10.89126   195   %  0.3748
     196     -78.95388     11.12133        -67.83255  10.90727   196   %  0.3740
     197     -78.90069     11.27447        -67.62621  11.11360   197   %  0.3784
     198     -78.95431     11.34376        -67.61054  11.12927   198   %  0.3776
     199     -78.89882     11.50696        -67.39186  11.34796   199   %  0.3822
     200     -78.95456     11.57804        -67.37652  11.36330   200   %  0.3813
     201     -78.89597     11.75349        -67.14248  11.59734   201   %  0.3860
     202     -78.95378     11.82564        -67.12814  11.61168   202   %  0.3851
     203     -78.89377     12.01730        -66.87647  11.86335   203   %  0.3900
     204     -78.95421     12.09175        -66.86246  11.87735   204   %  0.3891
     205     -78.88931     12.29701        -66.59230  12.14752   205   %  0.3940
     206     -78.95260     12.37362        -66.57899  12.16083   206   %  0.3931
     207     -78.88471     12.60553        -66.27918  12.46064   207   %  0.3982
     208     -78.95109     12.68421        -66.26688  12.47294   208   %  0.3973
     209     -78.88449     12.93215        -65.95234  12.78747   209   %  0.4025
     210     -78.95196     13.01107        -65.94089  12.79893   210   %  0.4015
     211     -78.88586     13.26015        -65.62571  13.11411   211   %  0.4067
     212     -78.95313     13.33840        -65.61474  13.12508   212   %  0.4058
     213     -78.88597     13.59247        -65.29350  13.44632   213   %  0.4111
     214     -78.95458     13.67244        -65.28214  13.45767   214   %  0.4101
     215     -78.87977     13.94092        -64.93885  13.80097   215   %  0.4155
     216     -78.95221     14.02493        -64.92728  13.81254   216   %  0.4144
     217     -78.88231     14.31216        -64.57016  14.16966   217   %  0.4198
     218     -78.95395     14.39403        -64.55993  14.17989   218   %  0.4188
     219     -78.87707     14.69277        -64.18430  14.55552   219   %  0.4244
     220     -78.95196     14.77825        -64.17372  14.56610   220   %  0.4233
     221     -78.87764     15.09796        -63.77968  14.96014   221   %  0.4289
     222     -78.95302     15.18309        -63.76994  14.96988   222   %  0.4278
     223     -78.87282     15.51677        -63.35604  15.38378   223   %  0.4336
     224     -78.95058     15.60412        -63.34646  15.39336   224   %  0.4325
     225     -78.98354     15.61097        -63.37257  15.36725   225   %  0.4325
     226     -78.95225     15.64663        -63.30562  15.43420   226   %  0.4356
     227     -78.98473     15.70403        -63.28070  15.45912   227   %  0.4351
     228     -78.95255     15.78421        -63.16834  15.57148   228   %  0.4383
     229     -78.98546     15.84049        -63.14496  15.59486   229   %  0.4378
     230     -78.95214     15.92589        -63.02624  15.71357   230   %  0.4410
     231     -78.98610     15.98310        -63.00300  15.73682   231   %  0.4405
     232     -78.95252     16.06916        -62.88336  15.85646   232   %  0.4437
     233     -78.98693     16.12678        -62.86015  15.87967   233   %  0.4432
     234     -78.95237     16.21459        -62.73778  16.00204   234   %  0.4464
     235     -78.98742     16.27218        -62.71524  16.02458   235   %  0.4459
     236     -78.95181     16.36307        -62.58874  16.15108   236   %  0.4492
     237     -78.98804     16.42152        -62.56652  16.17330   237   %  0.4486
     238     -78.95057     16.51624        -62.43433  16.30549   238   %  0.4520
     239     -78.98842     16.57603        -62.41240  16.32742   239   %  0.4514
     240     -78.94963     16.67479        -62.27484  16.46498   240   %  0.4548
     241     -78.98883     16.73527        -62.25356  16.48626   241   %  0.4541
     242     -78.94956     16.83599        -62.11357  16.62625   242   %  0.4576
     243     -78.98937     16.89633        -62.09304  16.64678   243   %  0.4569
     244     -78.94778     17.00217        -61.94561  16.79421   244   %  0.4605
     245     -78.98969     17.06481        -61.92488  16.81494   245   %  0.4598
     246     -78.94642     17.17579        -61.77063  16.96918   246   %  0.4634
     247     -78.98979     17.23903        -61.75076  16.98906   247   %  0.4627
     248     -78.94454     17.35667        -61.58787  17.15195   248   %  0.4663
     249     -78.98963     17.42058        -61.56905  17.17077   249   %  0.4656
     250     -78.94369     17.54327        -61.40043  17.33939   250   %  0.4693
     251     -78.99013     17.60808        -61.38206  17.35776   251   %  0.4686
     252     -78.94342     17.73256        -61.21086  17.52896   252   %  0.4723
     253     -78.99041     17.79727        -61.19314  17.54668   253   %  0.4716
     254     -78.94343     17.92478        -61.01865  17.72117   254   %  0.4754
     255     -78.99089     17.98940        -61.00149  17.73833   255   %  0.4746
     256     -78.94064     18.12447        -60.81617  17.92365   256   %  0.4785
     257     -78.99072     18.19199        -60.79873  17.94109   257   %  0.4777
     258     -78.94140     18.32984        -60.61156  18.12826   258   %  0.4815
     259     -78.99149     18.39657        -60.59492  18.14490   259   %  0.4807
     260     -78.94217     18.53397        -60.40820  18.33161   260   %  0.4846
     261     -78.99201     18.59996        -60.39205  18.34777   261   %  0.4838
     262     -78.94036     18.74356        -60.19680  18.54302   262   %  0.4877
     263     -78.99197     18.81142        -60.18056  18.55926   263   %  0.4869
     264     -78.93884     18.96203        -59.97681  18.76300   264   %  0.4909
     265     -78.99171     19.03043        -59.96128  18.77853   265   %  0.4900
     266     -78.93469     19.19432        -59.74037  18.99945   266   %  0.4942
     267     -78.99042     19.26504        -59.72537  19.01444   267   %  0.4933
     268     -78.93378     19.43950        -59.49428  19.24554   268   %  0.4975
     269     -78.99054     19.51026        -59.48028  19.25954   269   %  0.4966
     270     -78.93079     19.69334        -59.23745  19.50237   270   %  0.5008
     271     -78.99011     19.76685        -59.22326  19.51656   271   %  0.4999
     272     -78.92866     19.95985        -58.96880  19.77101   272   %  0.5042
     273     -78.98930     20.03387        -58.95543  19.78439   273   %  0.5033
     274     -78.92362     20.24561        -58.67801  20.06181   274   %  0.5078
     275     -78.98730     20.32216        -58.66514  20.07468   275   %  0.5068
     276     -78.92224     20.55005        -58.37219  20.36763   276   %  0.5113
     277     -78.98709     20.62682        -58.36027  20.37955   277   %  0.5103
     278     -78.91833     20.86730        -58.05103  20.68879   278   %  0.5150
     279     -78.98613     20.94720        -58.03893  20.70089   279   %  0.5139
     280     -78.91667     21.19972        -57.71695  21.02287   280   %  0.5186
     281     -78.98514     21.27932        -57.70582  21.03400   281   %  0.5176
     282     -78.91393     21.54904        -57.36489  21.37493   282   %  0.5223
     283     -78.98450     21.63060        -57.35389  21.38593   283   %  0.5213
     284     -78.91371     21.90782        -57.00589  21.73393   284   %  0.5260
     285     -78.98513     21.99001        -56.99512  21.74470   285   %  0.5250
     286     -78.90748     22.28129        -56.62619  22.11363   286   %  0.5299
     287     -78.98251     22.36741        -56.61510  22.12472   287   %  0.5288
     288     -78.90232     22.68954        -56.21278  22.52704   288   %  0.5337
     289     -78.97981     22.77725        -56.20257  22.53725   289   %  0.5326
     290     -79.01115     22.78042        -56.23073  22.50909   290   %  0.5326
     291     -78.98140     22.81465        -56.16674  22.57307   291   %  0.5352
     292     -79.01195     22.87134        -56.14061  22.59920   292   %  0.5346
     293     -78.98062     22.94915        -56.03147  22.70835   293   %  0.5374
     294     -79.01235     23.00569        -56.00665  22.73316   294   %  0.5368
     295     -78.98106     23.08604        -55.89503  22.84479   295   %  0.5396
     296     -79.01285     23.14269        -55.87016  22.86965   296   %  0.5390
     297     -78.98037     23.22506        -55.75531  22.98451   297   %  0.5418
     298     -79.01305     23.28213        -55.73092  23.00890   298   %  0.5412
     299     -78.98027     23.36576        -55.61450  23.12531   299   %  0.5440
     300     -79.01338     23.42236        -55.59102  23.14880   300   %  0.5434
     301     -78.98035     23.50610        -55.47425  23.26557   301   %  0.5463
     302     -79.01372     23.56237        -55.45135  23.28847   302   %  0.5456
     303     -78.97884     23.64973        -55.32911  23.41071   303   %  0.5485
     304     -79.01389     23.70781        -55.30609  23.43373   304   %  0.5478
     305     -78.97738     23.79926        -55.17813  23.56169   305   %  0.5508
     306     -79.01391     23.85807        -55.15583  23.58399   306   %  0.5501
     307     -78.97571     23.95404        -55.02167  23.71815   307   %  0.5532
     308     -79.01402     24.01441        -54.99962  23.74020   308   %  0.5524
     309     -78.97496     24.11275        -54.86221  23.87761   309   %  0.5555
     310     -79.01407     24.17300        -54.84107  23.89875   310   %  0.5547
     311     -78.97467     24.27310        -54.70158  24.03824   311   %  0.5578
     312     -79.01434     24.33335        -54.68100  24.05882   312   %  0.5570
     313     -78.97495     24.43346        -54.54148  24.19834   313   %  0.5601
     314     -79.01490     24.49417        -54.52073  24.21909   314   %  0.5593
     315     -78.97367     24.59730        -54.37636  24.36346   315   %  0.5625
     316     -79.01470     24.65869        -54.35602  24.38380   316   %  0.5617
     317     -78.97125     24.76914        -54.20211  24.53771   317   %  0.5649
     318     -79.01458     24.83268        -54.18189  24.55793   318   %  0.5640
     319     -78.97146     24.94413        -54.02733  24.71249   319   %  0.5672
     320     -79.01462     25.00610        -54.00853  24.73129   320   %  0.5664
     321     -78.96826     25.12516        -53.84311  24.89671   321   %  0.5697
     322     -79.01405     25.18972        -53.82433  24.91548   322   %  0.5689
     323     -78.96582     25.31662        -53.64919  25.09063   323   %  0.5722
     324     -79.01362     25.38248        -53.63114  25.10868   324   %  0.5714
     325     -78.96576     25.51199        -53.45378  25.28604   325   %  0.5747
     326     -79.01373     25.57702        -53.43671  25.30311   326   %  0.5738
     327     -78.96467     25.70974        -53.25493  25.48489   327   %  0.5773
     328     -79.01373     25.77581        -53.23792  25.50189   328   %  0.5763
     329     -78.96391     25.91178        -53.05213  25.68769   329   %  0.5798
     330     -79.01400     25.97896        -53.03505  25.70477   330   %  0.5789
     331     -78.96447     26.11482        -52.84965  25.89017   331   %  0.5823
     332     -79.01440     26.18154        -52.83286  25.90695   332   %  0.5813
     333     -78.96406     26.31927        -52.64479  26.09502   333   %  0.5848
     334     -79.01424     26.38577        -52.62847  26.11135   334   %  0.5838
     335     -78.95995     26.53457        -52.42539  26.31443   335   %  0.5874
     336     -79.01280     26.60332        -52.40947  26.33034   336   %  0.5864
     337     -78.95493     26.76914        -52.18579  26.55402   337   %  0.5901
     338     -79.01098     26.84016        -52.17082  26.56900   338   %  0.5891
     339     -78.95019     27.02344        -51.92674  26.81308   339   %  0.5929
     340     -79.00919     27.09647        -51.91271  26.82711   340   %  0.5919
     341     -78.94805     27.29221        -51.65585  27.08397   341   %  0.5957
     342     -79.00875     27.36627        -51.64248  27.09734   342   %  0.5947
     343     -78.94641     27.56781        -51.37860  27.36122   343   %  0.5985
     344     -79.00817     27.64252        -51.36565  27.37417   344   %  0.5975
     345     -78.94474     27.85241        -51.09233  27.64749   345   %  0.6014
     346     -79.00748     27.92764        -51.07984  27.65998   346   %  0.6003
     347     -78.94363     28.14535        -50.79828  27.94154   347   %  0.6043
     348     -79.00780     28.22214        -50.78565  27.95416   348   %  0.6032
     349     -78.94142     28.44393        -50.49749  28.24233   349   %  0.6071
     350     -79.00645     28.52112        -50.48533  28.25449   350   %  0.6060
     351     -78.94076     28.75488        -50.18588  28.55394   351   %  0.6100
     352     -79.00691     28.83308        -50.17382  28.56599   352   %  0.6089


           POTENTIAL ENERGY HAS STOPPED DROPPING


 **********************
 *                    *
 * JOB ENDED NORMALLY *
 *                    *
 **********************



 TOTAL JOB TIME:             0.16 SECONDS

 == MOPAC DONE ==
