 *******************************************************************************
 ** Site#:  999         For non-commercial use only           Version 21.129  **
 *******************************************************************************
 ** Cite this program as: MOPAC2016, Version: 21.129 , James J. P. Stewart,   **
 ** Stewart Computational Chemistry, web-site: HTTP://OpenMOPAC.net.          **
 *******************************************************************************
 **                                                                           **
 **                                MOPAC2016                                  **
 **                                                                           **
 *******************************************************************************

                              PM7 CALCULATION RESULTS

 *******************************************************************************
 *  CALCULATION DONE:                                Sun Nov 20 12:22:51 2022  *
 *  PM7        - The PM7 Hamiltonian to be used
 *
 *
 *
 *                 CHARGE ON SYSTEM = 0
 *
 *
 *
 *  IRC=N      - INTRINSIC REACTION COORDINATE -1 DEFINED
 *  PRECISE    - TIGHTER CRITERIA TO BE USED
 *  THREADS=1  - MULTI-THREADING NOT USED
 *  T=         - A TIME OF 172800.0 SECONDS REQUESTED
 *  DUMP=N     - RESTART FILE WRITTEN EVERY 7200.0 SECONDS REQUESTED
 *  CYCLES=    - DO A MAXIMUM OF 5000 STEPS
 *  OLDENS     - INITIAL DENSITY MATRIX READ OFF DISK
 *******************************************************************************
   pm7 threads=1 charge=0 irc=-1 oldens precise cycles=5000
 title
 title
   ATOM   CHEMICAL          X               Y               Z
  NUMBER   SYMBOL      (ANGSTROMS)     (ANGSTROMS)     (ANGSTROMS)
 
     1       C          0.00000000  *   0.00000000  *   0.00000000  *
     2       O          1.14432934  *   0.00000000  *   0.00000000  *
     3       O          0.26699497  *   2.46148939  *   0.00000000  *
     4       H          1.12469611  *   2.33211294  *   0.41301180  *
     5       H          0.44578622  *   2.91160653  *  -0.82363178  *
 


          CARTESIAN COORDINATES 

    NO.       ATOM           X           Y           Z

     1         C          0.0000      0.0000      0.0000
     2         O          1.1443      0.0000      0.0000
     3         O          0.2670      2.4615      0.0000
     4         H          1.1247      2.3321      0.4130
     5         H          0.4458      2.9116     -0.8236

 General Reference for PM7:
 "Optimization of Parameters for Semiempirical Methods VI: More Modifications to the 
 NDDO Approximations and Re-optimization of Parameters", J. J. P. Stewart, J. Mol. Mod., 1:32, 19 (2013)
 https://link.springer.com/article/10.1007/s00894-012-1667-x

           Empirical Formula: C H2 O2  =     5 atoms



      MOLECULAR POINT GROUP   :   C1  


      RHF CALCULATION, NO. OF DOUBLY OCCUPIED LEVELS = 9



          HEAT OF FORMATION =     -78.803363 KCALS/MOLE


          GRADIENT NORM =   2.34493


          TIME FOR SCF CALCULATION =    0.00

          TIME FOR DERIVATIVES     =    0.00

          MOLECULAR WEIGHT =   46.03


          ESTIMATED TIME TO COMPLETE CALCULATION =        0.23 SECONDS

    FOR POINT-GROUP C1   THERE ARE   1 UNIQUE SYMMETRY FUNCTIONS.

 STEP:   1 TIME =     0.00 SECS, INTEGRAL =      0.00 TIME LEFT: 172800.00
 STEP:   2 TIME =     0.00 SECS, INTEGRAL =      0.00 TIME LEFT: 172799.99
 STEP:   3 TIME =     0.00 SECS, INTEGRAL =      0.00 TIME LEFT: 172799.99
 STEP:   4 TIME =     0.00 SECS, INTEGRAL =      0.01 TIME LEFT: 172799.99
 STEP:   5 TIME =     0.00 SECS, INTEGRAL =      0.01 TIME LEFT: 172799.99
 STEP:   6 TIME =     0.00 SECS, INTEGRAL =      0.01 TIME LEFT: 172799.98
 STEP:   7 TIME =     0.00 SECS, INTEGRAL =      0.01 TIME LEFT: 172799.98
 STEP:   8 TIME =     0.00 SECS, INTEGRAL =      0.02 TIME LEFT: 172799.98
 STEP:   9 TIME =     0.00 SECS, INTEGRAL =      0.02 TIME LEFT: 172799.98
 STEP:  10 TIME =     0.00 SECS, INTEGRAL =      0.02 TIME LEFT: 172799.98
 STEP:  11 TIME =     0.00 SECS, INTEGRAL =      0.02 TIME LEFT: 172799.98
 STEP:  12 TIME =     0.00 SECS, INTEGRAL =      0.02 TIME LEFT: 172799.98
 STEP:  13 TIME =     0.00 SECS, INTEGRAL =      0.02 TIME LEFT: 172799.97
 STEP:  14 TIME =     0.00 SECS, INTEGRAL =      0.02 TIME LEFT: 172799.97
 STEP:  15 TIME =     0.00 SECS, INTEGRAL =      0.03 TIME LEFT: 172799.97
  Stopping critera: r_ij>5*r_ij(0)
 
           INITIAL VELOCITY IN DRC (Angstroms/Femtosecond)
         0.00995        -0.11919        -0.00493
         0.00997        -0.05863         0.01377
        -0.01696         0.15445         0.00182
         0.00294        -0.34098        -0.24121
        -0.01067         0.24030         0.05239
 
  Deltat    =   0.24 fs
  Maxcyc    =      5000
  Jloop_lim =      5000
 
  Initial distance matrix
  Bond#     i     j    Ini_value(A)
      1     1     2          1.144
      2     1     3          2.476
      3     1     4          2.622
      4     1     5          3.059
      5     2     3          2.613
      6     2     4          2.368
      7     2     5          3.105
      8     3     4          0.961
      9     3     5          0.955
     10     4     5          1.525
 
 


     POINT   POTENTIAL  +  ENERGY LOST   =   TOTAL      ERROR    REF%   MOVEMENT
       1     -78.80336      0.00000        -78.80336   0.00000     1   %  0.0000
       2     -78.80418      0.00000        -78.80418  -0.00082     2   %  0.0017
       3     -78.80500      0.00000        -78.80500  -0.00164     3   %  0.0034
       4     -78.81233      0.00000        -78.81233  -0.00897     4   %  0.0184
       5     -78.81939      0.00000        -78.81939  -0.01602     5   %  0.0327
       6     -78.82597      0.00000        -78.82597  -0.02261     6   %  0.0470
       7     -78.83228      0.00000        -78.83228  -0.02891     7   %  0.0611
       8     -78.83850      0.00000        -78.83850  -0.00622     8   %  0.0752
       9     -78.83440      0.01992        -78.81448   0.01780     9   %  0.0768
      10     -78.84030      0.05956        -78.78073   0.05154    10   %  0.0783
      11     -78.83917      0.10803        -78.73114   0.10114    11   %  0.0801
      12     -78.84374      0.15878        -78.68496   0.14731    12   %  0.0817
      13     -78.84302      0.21039        -78.63263   0.19965    13   %  0.0836
      14     -78.84707      0.26034        -78.58673   0.24555    14   %  0.0853
      15     -78.84587      0.31293        -78.53295   0.29933    15   %  0.0873
      16     -78.85043      0.36367        -78.48676   0.34552    16   %  0.0890
      17     -78.84872      0.41665        -78.43208   0.40020    17   %  0.0910
      18     -78.85360      0.46728        -78.38632   0.44595    18   %  0.0927
      19     -78.85173      0.51923        -78.33251   0.49977    19   %  0.0947
      20     -78.85643      0.56919        -78.28724   0.54504    20   %  0.0965
      21     -78.85416      0.62177        -78.23239   0.59989    21   %  0.0984
      22     -78.85940      0.67169        -78.18770   0.64457    22   %  0.1002
      23     -78.85653      0.72391        -78.13262   0.69966    23   %  0.1022
      24     -78.86187      0.77437        -78.08749   0.74478    24   %  0.1039
      25     -78.85945      0.82551        -78.03394   0.79834    25   %  0.1058
      26     -78.86403      0.87528        -77.98875   0.84353    26   %  0.1076
      27     -78.86204      0.92600        -77.93604   0.89624    27   %  0.1094
      28     -78.86623      0.97528        -77.89095   0.94133    28   %  0.1112
      29     -78.86420      1.02611        -77.83809   0.99419    29   %  0.1130
      30     -78.86830      1.07588        -77.79242   1.03985    30   %  0.1148
      31     -78.86632      1.12702        -77.73930   1.09297    31   %  0.1165
      32     -78.87048      1.17636        -77.69412   1.13815    32   %  0.1183
      33     -78.86784      1.22831        -77.63953   1.19274    33   %  0.1201
      34     -78.87270      1.27820        -77.59450   1.23778    34   %  0.1218
      35     -78.86947      1.33041        -77.53906   1.29322    35   %  0.1235
      36     -78.87464      1.38084        -77.49380   1.33848    36   %  0.1252
      37     -78.87135      1.43292        -77.43843   1.39385    37   %  0.1268
      38     -78.87656      1.48282        -77.39374   1.43854    38   %  0.1285
      39     -78.87314      1.53425        -77.33890   1.49338    39   %  0.1302
      40     -78.87819      1.58430        -77.29389   1.53839    40   %  0.1318
      41     -78.87460      1.63685        -77.23774   1.59454    41   %  0.1334
      42     -78.87991      1.68786        -77.19204   1.64023    42   %  0.1351
      43     -78.87666      1.73948        -77.13717   1.69510    43   %  0.1366
      44     -78.88132      1.78992        -77.09140   1.74088    44   %  0.1382
      45     -78.87846      1.84136        -77.03710   1.79518    45   %  0.1397
      46     -78.88284      1.89152        -76.99132   1.84096    46   %  0.1414
      47     -78.88004      1.94295        -76.93708   1.89519    47   %  0.1428
      48     -78.88432      1.99320        -76.89112   1.94116    48   %  0.1445
      49     -78.88153      2.04479        -76.83674   1.99554    49   %  0.1459
      50     -78.88583      2.09501        -76.79083   2.04145    50   %  0.1475
      51     -78.88307      2.14626        -76.73681   2.09547    51   %  0.1489
      52     -78.88728      2.19617        -76.69111   2.14117    52   %  0.1505
      53     -78.88439      2.24757        -76.63683   2.19545    53   %  0.1518
      54     -78.88861      2.29805        -76.59056   2.24172    54   %  0.1534
      55     -78.88580      2.34981        -76.53599   2.29629    55   %  0.1547
      56     -78.89012      2.39985        -76.49027   2.34201    56   %  0.1563
      57     -78.88734      2.45046        -76.43688   2.39540    57   %  0.1576
      58     -78.89136      2.49994        -76.39142   2.44086    58   %  0.1592
      59     -78.88825      2.55179        -76.33647   2.49581    59   %  0.1605
      60     -78.89298      2.60164        -76.29135   2.54093    60   %  0.1620
      61     -78.88951      2.65278        -76.23673   2.59554    61   %  0.1633
      62     -78.89383      2.70394        -76.18990   2.64238    62   %  0.1648
      63     -78.89086      2.75662        -76.13424   2.69804    63   %  0.1660
      64     -78.89544      2.80694        -76.08851   2.74377    64   %  0.1676
      65     -78.89217      2.85801        -76.03416   2.79812    65   %  0.1688
      66     -78.89640      2.90847        -75.98793   2.84435    66   %  0.1703
      67     -78.89334      2.96056        -75.93278   2.89950    67   %  0.1715
      68     -78.89772      3.01126        -75.88646   2.94582    68   %  0.1730
      69     -78.89434      3.06368        -75.83065   3.00162    69   %  0.1741
      70     -78.89888      3.11500        -75.78388   3.04839    70   %  0.1757
      71     -78.89552      3.16770        -75.72782   3.10446    71   %  0.1768
      72     -78.90018      3.21861        -75.68157   3.15071    72   %  0.1783
      73     -78.89683      3.27030        -75.62653   3.20575    73   %  0.1794
      74     -78.90125      3.32078        -75.58047   3.25181    74   %  0.1809
      75     -78.89830      3.37164        -75.52666   3.30561    75   %  0.1820
      76     -78.90192      3.42274        -75.47918   3.35310    76   %  0.1835
      77     -78.89966      3.47456        -75.42510   3.40718    77   %  0.1845
      78     -78.90278      3.52639        -75.37639   3.45588    78   %  0.1861
      79     -78.90097      3.57859        -75.32238   3.50990    79   %  0.1871
      80     -78.90406      3.62939        -75.27467   3.55761    80   %  0.1886
      81     -78.90223      3.68020        -75.22203   3.61025    81   %  0.1896
      82     -78.90491      3.73086        -75.17406   3.65822    82   %  0.1912
      83     -78.90345      3.78187        -75.12158   3.71069    83   %  0.1921
      84     -78.90606      3.83203        -75.07403   3.75825    84   %  0.1936
      85     -78.90404      3.88403        -75.02001   3.81227    85   %  0.1946
      86     -78.90737      3.93484        -74.97253   3.85975    86   %  0.1961
      87     -78.90484      3.98709        -74.91775   3.91453    87   %  0.1970
      88     -78.90849      4.03826        -74.87024   3.96204    88   %  0.1986
      89     -78.90590      4.09028        -74.81562   4.01665    89   %  0.1995
      90     -78.90959      4.14104        -74.76855   4.06373    90   %  0.2010
      91     -78.90688      4.19283        -74.71406   4.11822    91   %  0.2019
      92     -78.91051      4.24398        -74.66652   4.16575    92   %  0.2034
      93     -78.90778      4.29656        -74.61122   4.22105    93   %  0.2043
      94     -78.91160      4.34798        -74.56362   4.26865    94   %  0.2058
      95     -78.90907      4.39954        -74.50953   4.32275    95   %  0.2067
      96     -78.91268      4.44956        -74.46312   4.36915    96   %  0.2082
      97     -78.90977      4.50118        -74.40859   4.42368    97   %  0.2091
      98     -78.91379      4.55152        -74.36227   4.47001    98   %  0.2105
      99     -78.91092      4.60243        -74.30850   4.52378    99   %  0.2114
     100     -78.91441      4.65331        -74.26111   4.57117   100   %  0.2129
     101     -78.91212      4.70480        -74.20731   4.62496   101   %  0.2137
     102     -78.91509      4.75644        -74.15865   4.67363   102   %  0.2153
     103     -78.91315      4.80886        -74.10429   4.72799   103   %  0.2161
     104     -78.91621      4.86005        -74.05616   4.77612   104   %  0.2176
     105     -78.91443      4.91083        -74.00359   4.82869   105   %  0.2184
     106     -78.91709      4.96081        -73.95627   4.87601   106   %  0.2199
     107     -78.91549      5.01101        -73.90448   4.92780   107   %  0.2207
     108     -78.91783      5.06122        -73.85661   4.97567   108   %  0.2222
     109     -78.91627      5.11255        -73.80372   5.02856   109   %  0.2230
     110     -78.91882      5.16339        -73.75543   5.07685   110   %  0.2245
     111     -78.91691      5.21560        -73.70131   5.13096   111   %  0.2253
     112     -78.91978      5.26726        -73.65252   5.17976   112   %  0.2268
     113     -78.91803      5.31904        -73.59899   5.23328   113   %  0.2275
     114     -78.92038      5.37103        -73.54935   5.28292   114   %  0.2291
     115     -78.91926      5.42281        -73.49646   5.33582   115   %  0.2298
     116     -78.92146      5.47344        -73.44802   5.38426   116   %  0.2313
     117     -78.92028      5.52388        -73.39639   5.43588   117   %  0.2320
     118     -78.92203      5.57480        -73.34723   5.48505   118   %  0.2336
     119     -78.92131      5.62588        -73.29543   5.53685   119   %  0.2343
     120     -78.92258      5.67787        -73.24470   5.58757   120   %  0.2359
     121     -78.92287      5.72819        -73.19468   5.63760   121   %  0.2365
     122     -78.92277      5.78027        -73.14251   5.68977   122   %  0.2381
     123     -78.92440      5.83029        -73.09411   5.73817   123   %  0.2387
     124     -78.92331      5.88156        -73.04175   5.79053   124   %  0.2404
     125     -78.92513      5.93262        -72.99251   5.83977   125   %  0.2409
     126     -78.92446      5.98381        -72.94065   5.89163   126   %  0.2426
     127     -78.92583      6.03469        -72.89114   5.94114   127   %  0.2431
     128     -78.92525      6.08646        -72.83879   5.99349   128   %  0.2448
     129     -78.92659      6.13808        -72.78851   6.04377   129   %  0.2453
     130     -78.92624      6.19000        -72.73624   6.09604   130   %  0.2470
     131     -78.92767      6.24059        -72.68708   6.14520   131   %  0.2475
     132     -78.92718      6.29118        -72.63600   6.19627   132   %  0.2491
     133     -78.92825      6.34186        -72.58638   6.24589   133   %  0.2497
     134     -78.92818      6.39279        -72.53539   6.29689   134   %  0.2513
     135     -78.92924      6.44278        -72.48646   6.34582   135   %  0.2519
     136     -78.92862      6.49422        -72.43440   6.39788   136   %  0.2535
     137     -78.93029      6.54468        -72.38562   6.44666   137   %  0.2540
     138     -78.92906      6.59687        -72.33220   6.50008   138   %  0.2557
     139     -78.93166      6.64672        -72.28495   6.54733   139   %  0.2562
     140     -78.92968      6.69775        -72.23193   6.60035   140   %  0.2579
     141     -78.93224      6.74849        -72.18375   6.64853   141   %  0.2584
     142     -78.93062      6.80020        -72.13042   6.70185   142   %  0.2600
     143     -78.93336      6.84988        -72.08348   6.74880   143   %  0.2605
     144     -78.93120      6.90097        -72.03022   6.80205   144   %  0.2622
     145     -78.93430      6.95052        -71.98378   6.84850   145   %  0.2627
     146     -78.93187      7.00162        -71.93025   6.90203   146   %  0.2644
     147     -78.93509      7.05159        -71.88351   6.94877   147   %  0.2648
     148     -78.93267      7.10286        -71.82981   7.00247   148   %  0.2665
     149     -78.93599      7.15255        -71.78344   7.04884   149   %  0.2670
     150     -78.93288      7.20510        -71.72778   7.10449   150   %  0.2687
     151     -78.93707      7.25563        -71.68144   7.15084   151   %  0.2691
     152     -78.93352      7.30807        -71.62546   7.20682   152   %  0.2708
     153     -78.93797      7.35843        -71.57954   7.25274   153   %  0.2712
     154     -78.93422      7.41068        -71.52354   7.30874   154   %  0.2730
     155     -78.93869      7.46144        -71.47724   7.35504   155   %  0.2734
     156     -78.93490      7.51432        -71.42058   7.41170   156   %  0.2751
     157     -78.93955      7.56524        -71.37431   7.45797   157   %  0.2755
     158     -78.93593      7.61720        -71.31873   7.51355   158   %  0.2772
     159     -78.94036      7.66701        -71.27335   7.55893   159   %  0.2776
     160     -78.93641      7.71923        -71.21718   7.61510   160   %  0.2794
     161     -78.94133      7.76913        -71.17220   7.66008   161   %  0.2797
     162     -78.93674      7.82199        -71.11475   7.71753   162   %  0.2815
     163     -78.94247      7.87164        -71.07083   7.76145   163   %  0.2818
     164     -78.93719      7.92404        -71.01315   7.81913   164   %  0.2836
     165     -78.94308      7.97472        -70.96836   7.86392   165   %  0.2840
     166     -78.93831      8.02696        -70.91135   7.92093   166   %  0.2857
     167     -78.94370      8.07734        -70.86636   7.96592   167   %  0.2861
     168     -78.93894      8.13020        -70.80874   8.02354   168   %  0.2879
     169     -78.94479      8.17974        -70.76505   8.06723   169   %  0.2882
     170     -78.93948      8.23178        -70.70770   8.12458   170   %  0.2900
     171     -78.94530      8.28236        -70.66294   8.16934   171   %  0.2903
     172     -78.94040      8.33505        -70.60534   8.22693   172   %  0.2921
     173     -78.94590      8.38605        -70.55985   8.27242   173   %  0.2924
     174     -78.94131      8.43880        -70.50252   8.32976   174   %  0.2941
     175     -78.94671      8.48907        -70.45765   8.37463   175   %  0.2944
     176     -78.94211      8.54111        -70.40100   8.43128   176   %  0.2962
     177     -78.94729      8.59153        -70.35576   8.47652   177   %  0.2965
     178     -78.94250      8.64503        -70.29747   8.53481   178   %  0.2983
     179     -78.94848      8.69501        -70.25347   8.57881   179   %  0.2986
     180     -78.94259      8.74853        -70.19406   8.63822   180   %  0.3005
     181     -78.94936      8.79914        -70.15022   8.68206   181   %  0.3007
     182     -78.94326      8.85245        -70.09081   8.74147   182   %  0.3025
     183     -78.95017      8.90265        -70.04753   8.78475   183   %  0.3028
     184     -78.94396      8.95546        -69.98850   8.84378   184   %  0.3046
     185     -78.95079      9.00589        -69.94490   8.88737   185   %  0.3049
     186     -78.94440      9.05981        -69.88459   8.94769   186   %  0.3067
     187     -78.95155      9.11107        -69.84048   8.99180   187   %  0.3069
     188     -78.94555      9.16394        -69.78160   9.05068   188   %  0.3088
     189     -78.95199      9.21478        -69.73722   9.09506   189   %  0.3090
     190     -78.94638      9.26796        -69.67842   9.15386   190   %  0.3108
     191     -78.95268      9.31875        -69.63393   9.19835   191   %  0.3111
     192     -78.94731      9.37132        -69.57599   9.25629   192   %  0.3129
     193     -78.95338      9.42127        -69.53211   9.30017   193   %  0.3131
     194     -78.94780      9.47404        -69.47376   9.35852   194   %  0.3149
     195     -78.95431      9.52357        -69.43073   9.40154   195   %  0.3152
     196     -78.94805      9.57655        -69.37149   9.46079   196   %  0.3170
     197     -78.95523      9.62607        -69.32917   9.50311   197   %  0.3172
     198     -78.94814      9.67972        -69.26842   9.56386   198   %  0.3191
     199     -78.95620      9.72945        -69.22674   9.60553   199   %  0.3193
     200     -78.94842      9.78314        -69.16528   9.66700   200   %  0.3212
     201     -78.95683      9.83384        -69.12299   9.70929   201   %  0.3213
     202     -78.94886      9.88859        -69.06027   9.77201   202   %  0.3233
     203     -78.95765      9.93950        -69.01815   9.81413   203   %  0.3234
     204     -78.94920      9.99458        -68.95462   9.87765   204   %  0.3253
     205     -78.95861     10.04481        -68.91381   9.91847   205   %  0.3255
     206     -78.94935     10.09979        -68.84956   9.98272   206   %  0.3274
     207     -78.95942     10.15028        -68.80915  10.02313   207   %  0.3275
     208     -78.95004     10.20468        -68.74536  10.08692   208   %  0.3295
     209     -78.96010     10.25480        -68.70530  10.12697   209   %  0.3296
     210     -78.95046     10.30957        -68.64088  10.19139   210   %  0.3315
     211     -78.96071     10.36063        -68.60008  10.23219   211   %  0.3316
     212     -78.95117     10.41581        -68.53536  10.29692   212   %  0.3336
     213     -78.96150     10.46619        -68.49531  10.33697   213   %  0.3337
     214     -78.95125     10.52200        -68.42924  10.40303   214   %  0.3357
     215     -78.96230     10.57291        -68.38939  10.44289   215   %  0.3357
     216     -78.95225     10.62737        -68.32488  10.50739   216   %  0.3377
     217     -78.96299     10.67680        -68.28619  10.54609   217   %  0.3378
     218     -78.95239     10.73178        -68.22061  10.61166   218   %  0.3398
     219     -78.96373     10.78199        -68.18174  10.65054   219   %  0.3398
     220     -78.95248     10.83816        -68.11432  10.71796   220   %  0.3419
     221     -78.96444     10.88941        -68.07503  10.75725   221   %  0.3419
     222     -78.95351     10.94466        -68.00885  10.82343   222   %  0.3439
     223     -78.96516     10.99423        -67.97094  10.86134   223   %  0.3439
     224     -78.95392     11.04905        -67.90487  10.92740   224   %  0.3460
     225     -78.96585     11.09866        -67.86718  10.96510   225   %  0.3460
     226     -78.95452     11.15334        -67.80118  11.03110   226   %  0.3480
     227     -78.96649     11.20292        -67.76357  11.06871   227   %  0.3480
     228     -78.95509     11.25764        -67.69746  11.13482   228   %  0.3501
     229     -78.96711     11.30737        -67.65973  11.17254   229   %  0.3501
     230     -78.95571     11.36218        -67.59353  11.23875   230   %  0.3521
     231     -78.96775     11.41185        -67.55590  11.27638   231   %  0.3521
     232     -78.95537     11.46879        -67.48658  11.34570   232   %  0.3542
     233     -78.96859     11.51965        -67.44894  11.38334   233   %  0.3542
     234     -78.95513     11.57795        -67.37718  11.45510   234   %  0.3563
     235     -78.96947     11.62886        -67.34060  11.49167   235   %  0.3562
     236     -78.95546     11.68646        -67.26900  11.56327   236   %  0.3584
     237     -78.97021     11.73655        -67.23366  11.59862   237   %  0.3583
     238     -78.95582     11.79366        -67.16216  11.67011   238   %  0.3604
     239     -78.97073     11.84475        -67.12598  11.70630   239   %  0.3604
     240     -78.95691     11.90153        -67.05538  11.77690   240   %  0.3625
     241     -78.97126     11.95233        -67.01893  11.81335   241   %  0.3624
     242     -78.95734     12.00990        -66.94744  11.88484   242   %  0.3645
     243     -78.97186     12.06138        -66.91047  11.92180   243   %  0.3644
     244     -78.95833     12.11835        -66.83997  11.99230   244   %  0.3665
     245     -78.97251     12.16848        -66.80403  12.02825   245   %  0.3665
     246     -78.95886     12.22489        -66.73397  12.09831   246   %  0.3686
     247     -78.97297     12.27590        -66.69707  12.13521   247   %  0.3685
     248     -78.95986     12.33228        -66.62759  12.20469   248   %  0.3706
     249     -78.97347     12.38318        -66.59029  12.24199   249   %  0.3705
     250     -78.96046     12.44002        -66.52044  12.31184   250   %  0.3726
     251     -78.97406     12.49105        -66.48301  12.34927   251   %  0.3725
     252     -78.96130     12.54732        -66.41398  12.41830   252   %  0.3746
     253     -78.97465     12.59759        -66.37706  12.45522   253   %  0.3745
     254     -78.96167     12.65404        -66.30763  12.52465   254   %  0.3766
     255     -78.97515     12.70526        -66.26989  12.56239   255   %  0.3766
     256     -78.96212     12.76266        -66.19946  12.63282   256   %  0.3786
     257     -78.97584     12.81370        -66.16214  12.67014   257   %  0.3785
     258     -78.96235     12.87128        -66.09107  12.74121   258   %  0.3807
     259     -78.97656     12.92184        -66.05472  12.77756   259   %  0.3806
     260     -78.96210     12.98031        -65.98178  12.85049   260   %  0.3827
     261     -78.97725     13.03168        -65.94557  12.88671   261   %  0.3826
     262     -78.96201     13.09114        -65.87087  12.96140   262   %  0.3847
     263     -78.97802     13.14217        -65.83585  12.99643   263   %  0.3846
     264     -78.96235     13.20076        -65.76159  13.07068   264   %  0.3868
     265     -78.97866     13.25104        -65.72762  13.10466   265   %  0.3866
     266     -78.96245     13.30983        -65.65262  13.17966   266   %  0.3888
     267     -78.97917     13.36157        -65.61759  13.21469   267   %  0.3887
     268     -78.96267     13.42188        -65.54079  13.29149   268   %  0.3909
     269     -78.97984     13.47365        -65.50619  13.32608   269   %  0.3907
     270     -78.96333     13.53306        -65.43027  13.40201   270   %  0.3929
     271     -78.98035     13.58460        -65.39575  13.43653   271   %  0.3927
     272     -78.96402     13.64383        -65.32019  13.51209   272   %  0.3949
     273     -78.98091     13.69515        -65.28576  13.54652   273   %  0.3947
     274     -78.96487     13.75363        -65.21124  13.62104   274   %  0.3969
     275     -78.98143     13.80436        -65.17707  13.65520   275   %  0.3967
     276     -78.96497     13.86376        -65.10121  13.73107   276   %  0.3989
     277     -78.98210     13.91443        -65.06767  13.76461   277   %  0.3987
     278     -78.96416     13.97599        -64.98818  13.84410   278   %  0.4010
     279     -78.98275     14.02833        -64.95442  13.87786   279   %  0.4008
     280     -78.96433     14.09035        -64.87398  13.95830   280   %  0.4030
     281     -78.98333     14.14264        -64.84069  13.99159   281   %  0.4028
     282     -78.96490     14.20411        -64.76079  14.07148   282   %  0.4050
     283     -78.98385     14.25638        -64.72747  14.10481   283   %  0.4048
     284     -78.96483     14.31926        -64.64557  14.18671   284   %  0.4071
     285     -78.98450     14.37147        -64.61303  14.21925   285   %  0.4068
     286     -78.96439     14.43549        -64.52891  14.30337   286   %  0.4092
     287     -78.98509     14.48842        -64.49667  14.33561   287   %  0.4089
     288     -78.96517     14.55134        -64.41383  14.41845   288   %  0.4112
     289     -78.98562     14.60341        -64.38221  14.45007   289   %  0.4109
     290     -78.96494     14.66762        -64.29732  14.53496   290   %  0.4133
     291     -78.98620     14.72034        -64.26586  14.56642   291   %  0.4129
     292     -78.96544     14.78418        -64.18125  14.65102   292   %  0.4153
     293     -78.98673     14.83666        -64.15007  14.68221   293   %  0.4150
     294     -78.96511     14.90214        -64.06297  14.76931   294   %  0.4174
     295     -78.98730     14.95510        -64.03220  14.80008   295   %  0.4170
     296     -78.96450     15.02234        -63.94216  14.89011   296   %  0.4195
     297     -78.98784     15.07596        -63.91188  14.92039   297   %  0.4191
     298     -78.96423     15.14417        -63.82006  15.01222   298   %  0.4216
     299     -78.98837     15.19770        -63.79067  15.04161   299   %  0.4212
     300     -78.96398     15.26669        -63.69730  15.13498   300   %  0.4237
     301     -78.98888     15.32044        -63.66844  15.16384   301   %  0.4233
     302     -78.96313     15.39170        -63.57143  15.26085   302   %  0.4258
     303     -78.98936     15.44657        -63.54280  15.28948   303   %  0.4254
     304     -78.96369     15.51730        -63.44639  15.38589   304   %  0.4279
     305     -78.98990     15.57168        -63.41822  15.41406   305   %  0.4275
     306     -78.96462     15.64122        -63.32340  15.50888   306   %  0.4300
     307     -78.99044     15.69514        -63.29530  15.53698   307   %  0.4296
     308     -78.96460     15.76583        -63.19876  15.63351   308   %  0.4321
     309     -78.99089     15.81959        -63.17130  15.66098   309   %  0.4317
     310     -78.96368     15.89274        -63.07095  15.76133   310   %  0.4343
     311     -78.99135     15.94781        -63.04354  15.78873   311   %  0.4338
     312     -78.96327     16.02251        -62.94076  15.89152   312   %  0.4364
     313     -78.99174     16.07732        -62.91442  15.91786   313   %  0.4360
     314     -78.96368     16.15155        -62.81213  16.02014   314   %  0.4386
     315     -78.99234     16.20682        -62.78551  16.04677   315   %  0.4381
     316     -78.96343     16.28249        -62.68095  16.15133   316   %  0.4407
     317     -78.99278     16.33879        -62.65399  16.17829   317   %  0.4402
     318     -78.96454     16.41354        -62.55099  16.28128   318   %  0.4428
     319     -78.99330     16.46843        -62.52487  16.30741   319   %  0.4423
     320     -78.96355     16.54575        -62.41781  16.41447   320   %  0.4450
     321     -78.99370     16.60245        -62.39126  16.44102   321   %  0.4445
     322     -78.96480     16.67835        -62.28644  16.54583   322   %  0.4471
     323     -78.99421     16.73311        -62.26110  16.57118   323   %  0.4466
     324     -78.96356     16.81191        -62.15165  16.68063   324   %  0.4493
     325     -78.99445     16.86778        -62.12668  16.70560   325   %  0.4488
     326     -78.96186     16.95085        -62.01102  16.82126   326   %  0.4515
     327     -78.99473     17.00846        -61.98627  16.84600   327   %  0.4510
     328     -78.96168     17.09262        -61.86907  16.96321   328   %  0.4538
     329     -78.99500     17.14940        -61.84560  16.98667   329   %  0.4532
     330     -78.96082     17.23584        -61.72499  17.10729   330   %  0.4560
     331     -78.99539     17.29392        -61.70147  17.13081   331   %  0.4554
     332     -78.96183     17.37908        -61.58275  17.24953   332   %  0.4582
     333     -78.99591     17.43601        -61.55990  17.27238   333   %  0.4576
     334     -78.96103     17.52349        -61.43754  17.39474   334   %  0.4605
     335     -78.99618     17.58155        -61.41462  17.41765   335   %  0.4599
     336     -78.95956     17.67323        -61.28633  17.54595   336   %  0.4628
     337     -78.99626     17.73236        -61.26391  17.56837   337   %  0.4621
     338     -78.95807     17.82831        -61.12976  17.70252   338   %  0.4651
     339     -78.99640     17.88863        -61.10777  17.72451   339   %  0.4644
     340     -78.95773     17.98635        -60.97138  17.86089   340   %  0.4674
     341     -78.99659     18.04625        -60.95033  17.88194   341   %  0.4668
     342     -78.95623     18.14795        -60.80827  18.02400   342   %  0.4698
     343     -78.99675     18.20959        -60.78716  18.04511   343   %  0.4691
     344     -78.95617     18.31269        -60.64348  18.18880   344   %  0.4722
     345     -78.99682     18.37323        -60.62360  18.20868   345   %  0.4715
     346     -78.95533     18.47949        -60.47584  18.35644   346   %  0.4746
     347     -78.99714     18.54116        -60.45599  18.37629   347   %  0.4738
     348     -78.95268     18.65336        -60.29932  18.53296   348   %  0.4770
     349     -78.99678     18.71724        -60.27954  18.55274   349   %  0.4763
     350     -78.95039     18.83719        -60.11320  18.71908   350   %  0.4795
     351     -78.99649     18.90240        -60.09410  18.73818   351   %  0.4787
     352     -78.95071     19.02395        -59.92676  18.90552   352   %  0.4820
     353     -78.99675     19.08796        -59.90879  18.92349   353   %  0.4812
     354     -78.94926     19.21326        -59.73600  19.09628   354   %  0.4845
     355     -78.99681     19.27897        -59.71784  19.11444   355   %  0.4837
     356     -78.94962     19.40539        -59.54423  19.28805   356   %  0.4870
     357     -78.99728     19.47080        -59.52648  19.30580   357   %  0.4862
     358     -78.94821     19.60089        -59.34732  19.48495   358   %  0.4896
     359     -78.99704     19.66730        -59.32974  19.50254   359   %  0.4887
     360     -78.94705     19.80299        -59.14406  19.68822   360   %  0.4922
     361     -78.99686     19.86970        -59.12716  19.70512   361   %  0.4913
     362     -78.94592     20.01018        -58.93574  19.89654   362   %  0.4948
     363     -78.99679     20.07755        -58.91924  19.91303   363   %  0.4939
     364     -78.94406     20.22390        -58.72016  20.11212   364   %  0.4974
     365     -78.99641     20.29243        -58.70398  20.12829   365   %  0.4965
     366     -78.94020     20.45007        -58.49012  20.34215   366   %  0.5001
     367     -78.99486     20.52009        -58.47477  20.35751   367   %  0.4992
     368     -78.93934     20.68769        -58.25165  20.58063   368   %  0.5029
     369     -78.99495     20.75776        -58.23719  20.59508   369   %  0.5020
     370     -78.93412     20.93638        -57.99774  20.83454   370   %  0.5058
     371     -78.99298     21.00961        -57.98337  20.84891   371   %  0.5048
     372     -78.93165     21.20420        -57.72745  21.10483   372   %  0.5087
     373     -78.99216     21.27803        -57.71413  21.11815   373   %  0.5077
     374     -78.92524     21.49070        -57.43454  21.39774   374   %  0.5117
     375     -78.98962     21.56821        -57.42141  21.41087   375   %  0.5107
     376     -78.91950     21.80647        -57.11303  21.71925   376   %  0.5148
     377     -78.98754     21.88705        -57.10050  21.73178   377   %  0.5138
     378     -78.91322     22.14924        -56.76398  22.06829   378   %  0.5181
     379     -78.98430     22.23192        -56.75238  22.07989   379   %  0.5170
     380     -78.90771     22.52569        -56.38202  22.45026   380   %  0.5214
     381     -78.98145     22.61004        -56.37142  22.46086   381   %  0.5203
     382     -78.90109     22.93562        -55.96547  22.86681   382   %  0.5248
     383     -78.97812     23.02261        -55.95551  22.87677   383   %  0.5237
     384     -79.00999     23.02684        -55.98315  22.84912   384   %  0.5235
     385     -78.97882     23.06272        -55.91610  22.91618   385   %  0.5260
     386     -79.01060     23.12067        -55.88994  22.94234   386   %  0.5253
     387     -78.97688     23.20322        -55.77366  23.05861   387   %  0.5280
     388     -79.01053     23.26048        -55.75005  23.08223   388   %  0.5273
     389     -78.97591     23.34819        -55.62772  23.20456   389   %  0.5300
     390     -79.01084     23.40661        -55.60422  23.22805   390   %  0.5293
     391     -78.97446     23.49700        -55.47745  23.35482   391   %  0.5320
     392     -79.01077     23.55636        -55.45441  23.37787   392   %  0.5313
     393     -78.97444     23.64809        -55.32634  23.50593   393   %  0.5341
     394     -79.01097     23.70652        -55.30445  23.52783   394   %  0.5333
     395     -78.97382     23.79957        -55.17424  23.65804   395   %  0.5361
     396     -79.01116     23.85870        -55.15246  23.67981   396   %  0.5353
     397     -78.97253     23.95499        -55.01754  23.81473   397   %  0.5382
     398     -79.01108     24.01485        -54.99624  23.83604   398   %  0.5374
     399     -78.97089     24.11576        -54.85513  23.97715   399   %  0.5403
     400     -79.01103     24.17686        -54.83418  23.99810   400   %  0.5395
     401     -78.97048     24.27955        -54.69093  24.14135   401   %  0.5424
     402     -79.01104     24.34010        -54.67095  24.16133   402   %  0.5416
     403     -78.96864     24.44737        -54.52128  24.31100   403   %  0.5446
     404     -79.01101     24.50986        -54.50115  24.33112   404   %  0.5437
     405     -78.96869     24.61820        -54.35049  24.48179   405   %  0.5467
     406     -79.01131     24.68051        -54.33080  24.50148   406   %  0.5458
     407     -78.96764     24.79151        -54.17613  24.65615   407   %  0.5488
     408     -79.01116     24.85440        -54.15676  24.67552   408   %  0.5480
     409     -78.96553     24.97150        -53.99403  24.83825   409   %  0.5510
     410     -79.01087     25.03596        -53.97491  24.85736   410   %  0.5502
     411     -78.96242     25.16108        -53.80134  25.03094   411   %  0.5533
     412     -79.00980     25.22648        -53.78332  25.04896   412   %  0.5524
     413     -78.96052     25.35981        -53.60071  25.23157   413   %  0.5556
     414     -79.00974     25.42660        -53.58315  25.24913   414   %  0.5547
     415     -78.95885     25.56339        -53.39546  25.43682   415   %  0.5579
     416     -79.00929     25.63091        -53.37838  25.45390   416   %  0.5570
     417     -78.95525     25.77808        -53.17717  25.65510   417   %  0.5603
     418     -79.00790     25.84699        -53.16091  25.67136   418   %  0.5594
     419     -78.95304     26.00481        -52.94823  25.88405   419   %  0.5628
     420     -79.00758     26.07504        -52.93254  25.89974   420   %  0.5618
     421     -78.95254     26.23510        -52.71744  26.11483   421   %  0.5652
     422     -79.00735     26.30486        -52.70249  26.12978   422   %  0.5642
     423     -78.94862     26.47553        -52.47309  26.35919   423   %  0.5677
     424     -79.00570     26.54714        -52.45856  26.37371   424   %  0.5667
     425     -78.94794     26.72756        -52.22039  26.61189   425   %  0.5702
     426     -79.00621     26.80002        -52.20619  26.62609   426   %  0.5692
     427     -78.94475     26.98471        -51.96004  26.87224   427   %  0.5727
     428     -79.00495     27.05911        -51.94584  26.88644   428   %  0.5717
     429     -78.94126     27.25899        -51.68227  27.15001   429   %  0.5754
     430     -79.00356     27.33489        -51.66868  27.16360   430   %  0.5743
     431     -78.93638     27.55202        -51.38437  27.44791   431   %  0.5780
     432     -79.00115     27.62956        -51.37159  27.46069   432   %  0.5770
     433     -78.93119     27.87035        -51.06084  27.77144   433   %  0.5808
     434     -78.99866     27.94971        -51.04895  27.78333   434   %  0.5797
     435     -78.92882     28.20850        -50.72032  28.11196   435   %  0.5836
     436     -78.99794     28.28886        -50.70908  28.12320   436   %  0.5825
     437     -78.92578     28.55785        -50.36793  28.46434   437   %  0.5865
     438     -78.99667     28.63977        -50.35690  28.47538   438   %  0.5853
     439     -78.91693     28.93572        -49.98121  28.85107   439   %  0.5895
     440     -78.99191     29.02140        -49.97051  28.86177   440   %  0.5883
     441     -78.90754     29.36689        -49.54065  29.29163   441   %  0.5927
     442     -78.98779     29.45739        -49.53040  29.30187   442   %  0.5914
     443     -79.02133     29.46424        -49.55708  29.27519   443   %  0.5910
     444     -78.98890     29.49980        -49.48910  29.34318   444   %  0.5933
     445     -79.02200     29.55747        -49.46453  29.36775   445   %  0.5925
     446     -78.98858     29.63862        -49.34997  29.48231   446   %  0.5950
     447     -79.02234     29.69632        -49.32602  29.50626   447   %  0.5942
     448     -78.98804     29.78202        -49.20603  29.62625   448   %  0.5968
     449     -79.02226     29.83931        -49.18296  29.64932   449   %  0.5959
     450     -78.98775     29.92620        -49.06155  29.77073   450   %  0.5985
     451     -79.02245     29.98342        -49.03904  29.79324   451   %  0.5977
     452     -78.98670     30.07224        -48.91446  29.91782   452   %  0.6003
     453     -79.02242     30.13021        -48.89221  29.94006   453   %  0.5994
     454     -78.98474     30.22375        -48.76100  30.07128   454   %  0.6021
     455     -79.02227     30.28329        -48.73899  30.09329   455   %  0.6012
     456     -78.98255     30.38203        -48.60051  30.23176   456   %  0.6039
     457     -79.02201     30.44309        -48.57892  30.25336   457   %  0.6030
     458     -78.98028     30.54739        -48.43288  30.39939   458   %  0.6058
     459     -79.02137     30.60871        -48.41266  30.41962   459   %  0.6049
     460     -78.97657     30.72212        -48.25445  30.57783   460   %  0.6078
     461     -79.02070     30.78603        -48.23467  30.59761   461   %  0.6068
     462     -78.97488     30.90435        -48.07053  30.76175   462   %  0.6097
     463     -79.02037     30.96871        -48.05166  30.78062   463   %  0.6088
     464     -78.97223     31.09346        -47.87877  30.95351   464   %  0.6117
     465     -79.01946     31.15868        -47.86079  30.97149   465   %  0.6107
     466     -78.96797     31.29519        -47.67278  31.15950   466   %  0.6138
     467     -79.01823     31.36281        -47.65542  31.17685   467   %  0.6128
     468     -78.96328     31.51260        -47.45068  31.38159   468   %  0.6160
     469     -79.01659     31.58230        -47.43429  31.39799   469   %  0.6149
     470     -78.95862     31.74727        -47.21135  31.62092   470   %  0.6182
     471     -79.01490     31.81900        -47.19590  31.63637   471   %  0.6171
     472     -78.95693     31.99347        -46.96346  31.86882   472   %  0.6204
     473     -79.01454     32.06574        -46.94880  31.88348   473   %  0.6193
     474     -78.95397     32.24732        -46.70665  32.12562   474   %  0.6227
     475     -79.01291     32.32013        -46.69278  32.13950   475   %  0.6216
     476     -78.94868     32.52103        -46.42765  32.40463   476   %  0.6251
     477     -79.01067     32.59631        -46.41436  32.41792   477   %  0.6240
     478     -78.94330     32.81811        -46.12519  32.70709   478   %  0.6275
     479     -79.00889     32.89670        -46.11219  32.72008   479   %  0.6264
     480     -78.93623     33.14015        -45.79607  33.03620   480   %  0.6301
     481     -79.00518     33.22125        -45.78393  33.04835   481   %  0.6289
     482     -78.92766     33.50271        -45.42494  33.40733   482   %  0.6328
     483     -79.00111     33.58755        -45.41356  33.41872   483   %  0.6315
     484     -78.92185     33.90183        -45.02002  33.81226   484   %  0.6355
     485     -78.99774     33.98785        -45.00988  33.82239   485   %  0.6342
     486     -79.02839     33.98975        -45.03864  33.79364   486   %  0.6339
     487     -78.99904     34.02422        -44.97482  33.85746   487   %  0.6359
     488     -79.02901     34.08171        -44.94730  33.88498   488   %  0.6350
     489     -78.99867     34.15742        -44.84126  33.99102   489   %  0.6374
     490     -79.02921     34.21379        -44.81542  34.01686   490   %  0.6365
     491     -78.99762     34.29417        -44.70345  34.12883   491   %  0.6389
     492     -79.02912     34.35047        -44.67865  34.15363   492   %  0.6380
     493     -78.99739     34.43116        -44.56623  34.26604   493   %  0.6404
     494     -79.02928     34.48709        -44.54218  34.29009   494   %  0.6395
     495     -78.99581     34.57056        -44.42525  34.40703   495   %  0.6420
     496     -79.02924     34.62818        -44.40106  34.43121   496   %  0.6411
     497     -78.99466     34.71459        -44.28007  34.55221   497   %  0.6435
     498     -79.02913     34.77227        -44.25686  34.57542   498   %  0.6426
     499     -78.99462     34.85899        -44.13563  34.69664   499   %  0.6451
     500     -79.02924     34.91598        -44.11327  34.71901   500   %  0.6442
     501     -78.99363     35.00441        -43.98922  34.84305   501   %  0.6467
     502     -79.02922     35.06226        -43.96696  34.86531   502   %  0.6457
     503     -78.99358     35.15135        -43.84223  34.99005   503   %  0.6482
     504     -79.02945     35.20933        -43.82011  35.01217   504   %  0.6473
     505     -78.99240     35.30088        -43.69152  35.14075   505   %  0.6498
     506     -79.02924     35.35945        -43.66979  35.16249   506   %  0.6488
     507     -78.99171     35.45343        -43.53828  35.29400   507   %  0.6514
     508     -79.02949     35.51316        -43.51633  35.31595   508   %  0.6504
     509     -78.98966     35.61105        -43.37862  35.45366   509   %  0.6530
     510     -79.02902     35.67199        -43.35704  35.47524   510   %  0.6520
     511     -78.98824     35.77458        -43.21366  35.61862   511   %  0.6546
     512     -79.02886     35.83604        -43.19282  35.63946   512   %  0.6536
     513     -78.98877     35.93772        -43.05105  35.78122   513   %  0.6562
     514     -79.02926     35.99888        -43.03038  35.80190   514   %  0.6552
     515     -78.98840     36.10083        -42.88757  35.94471   515   %  0.6578
     516     -79.02902     36.16155        -42.86747  35.96480   516   %  0.6568
     517     -78.98709     36.26761        -42.71948  36.11280   517   %  0.6595
     518     -79.02890     36.32926        -42.69964  36.13264   518   %  0.6585
     519     -78.98531     36.43930        -42.54601  36.28627   519   %  0.6612
     520     -79.02848     36.50189        -42.52659  36.30569   520   %  0.6601
     521     -78.98279     36.61850        -42.36429  36.46799   521   %  0.6629
     522     -79.02799     36.68287        -42.34512  36.48715   522   %  0.6618
     523     -78.97942     36.80763        -42.17180  36.66048   523   %  0.6646
     524     -79.02672     36.87296        -42.15376  36.67852   524   %  0.6636
     525     -78.97738     37.00588        -41.97150  36.86078   525   %  0.6664
     526     -79.02650     37.07256        -41.95394  36.87834   526   %  0.6653
     527     -78.97525     37.20944        -41.76581  37.06647   527   %  0.6682
     528     -79.02581     37.27717        -41.74864  37.08364   528   %  0.6671
     529     -78.97228     37.42299        -41.54929  37.28299   529   %  0.6701
     530     -79.02439     37.49116        -41.53323  37.29904   530   %  0.6689
     531     -78.96751     37.65189        -41.31563  37.51665   531   %  0.6720
     532     -79.02280     37.72270        -41.30010  37.53218   532   %  0.6709
     533     -78.96690     37.88969        -41.07721  37.75507   533   %  0.6739
     534     -79.02250     37.95964        -41.06286  37.76942   534   %  0.6727
     535     -78.96205     38.13741        -40.82464  38.00764   535   %  0.6759
     536     -79.02053     38.21017        -40.81036  38.02192   536   %  0.6747
     537     -78.95589     38.40895        -40.54693  38.28534   537   %  0.6780
     538     -79.01838     38.48544        -40.53294  38.29934   538   %  0.6768
     539     -78.95540     38.69347        -40.26193  38.57035   539   %  0.6800
     540     -79.01776     38.76837        -40.24939  38.58289   540   %  0.6788
     541     -78.94861     38.99360        -39.95501  38.87726   541   %  0.6822
     542     -79.01499     39.07279        -39.94220  38.89008   542   %  0.6809
     543     -78.94494     39.31833        -39.62661  39.20566   543   %  0.6843
     544     -79.01305     39.39814        -39.61491  39.21737   544   %  0.6831
     545     -78.93971     39.66434        -39.27537  39.55691   545   %  0.6866
     546     -79.01026     39.74598        -39.26428  39.56800   546   %  0.6853
     547     -78.92962     40.04800        -38.88161  39.95066   547   %  0.6890
     548     -79.00529     40.13447        -38.87082  39.96146   548   %  0.6877
     549     -79.03536     40.13491        -38.90045  39.93183   549   %  0.6872
     550     -79.00639     40.16859        -38.83780  39.99448   550   %  0.6891
     551     -79.03595     40.22678        -38.80917  40.02310   551   %  0.6881
     552     -79.00532     40.30324        -38.70208  40.13019   552   %  0.6904
     553     -79.03588     40.35933        -38.67655  40.15572   553   %  0.6894
     554     -79.00468     40.43920        -38.56548  40.26679   554   %  0.6917
     555     -79.03593     40.49515        -38.54078  40.29150   555   %  0.6907
     556     -79.00416     40.57526        -38.42890  40.40337   556   %  0.6930
     557     -79.03594     40.63119        -38.40475  40.42753   557   %  0.6920
     558     -79.00321     40.71323        -38.28998  40.54230   558   %  0.6943
     559     -79.03590     40.76967        -38.26623  40.56605   559   %  0.6933
     560     -79.00257     40.85308        -38.14949  40.68278   560   %  0.6956
     561     -79.03606     40.91062        -38.12544  40.70683   561   %  0.6946
     562     -79.00184     40.99567        -38.00617  40.82611   562   %  0.6969
     563     -79.03607     41.05404        -37.98203  40.85025   563   %  0.6959
     564     -79.00157     41.14024        -37.86132  40.97095   564   %  0.6982
     565     -79.03597     41.19761        -37.83836  40.99392   565   %  0.6972
     566     -79.00092     41.28513        -37.71579  41.11648   566   %  0.6996
     567     -79.03603     41.34298        -37.69305  41.13923   567   %  0.6985
     568     -79.00076     41.43068        -37.57009  41.26219   568   %  0.7009
     569     -79.03616     41.48888        -37.54729  41.28499   569   %  0.6998
     570     -79.00066     41.57705        -37.42362  41.40866   570   %  0.7022
     571     -79.03627     41.63546        -37.40081  41.43147   571   %  0.7011
     572     -78.99856     41.72817        -37.27039  41.56188   572   %  0.7036
     573     -79.03594     41.78829        -37.24765  41.58463   573   %  0.7025
     574     -78.99873     41.88169        -37.11704  41.71524   574   %  0.7049
     575     -79.03615     41.94127        -37.09487  41.73740   575   %  0.7038
     576     -78.99826     42.03510        -36.96316  41.86912   576   %  0.7062
     577     -79.03600     42.09453        -36.94146  41.89081   577   %  0.7051
     578     -78.99588     42.19379        -36.80209  42.03019   578   %  0.7076
     579     -79.03570     42.25543        -36.78027  42.05201   579   %  0.7065
     580     -78.99355     42.36004        -36.63351  42.19877   580   %  0.7090
     581     -79.03516     42.42279        -36.61237  42.21990   581   %  0.7079
     582     -78.99178     42.53217        -36.45961  42.37267   582   %  0.7104
     583     -79.03447     42.59450        -36.43997  42.39231   583   %  0.7093
     584     -78.98892     42.71077        -36.27815  42.55412   584   %  0.7119
     585     -79.03379     42.77470        -36.25909  42.57319   585   %  0.7108
     586     -78.98572     42.89847        -36.08725  42.74503   586   %  0.7134
     587     -79.03263     42.96337        -36.06926  42.76302   587   %  0.7123
     588     -78.98133     43.09907        -35.88225  42.95003   588   %  0.7150
     589     -79.03131     43.16640        -35.86491  42.96737   589   %  0.7139
     590     -78.98049     43.30702        -35.67347  43.15881   590   %  0.7166
     591     -79.03101     43.37375        -35.65727  43.17501   591   %  0.7154
     592     -78.97714     43.52140        -35.45574  43.37654   592   %  0.7182
     593     -79.03022     43.59107        -35.43915  43.39313   593   %  0.7170
     594     -78.97517     43.74528        -35.22989  43.60239   594   %  0.7198
     595     -79.02915     43.81478        -35.21436  43.61791   595   %  0.7186
     596     -78.97006     43.98366        -34.98640  43.84588   596   %  0.7215
     597     -79.02721     44.05598        -34.97123  43.86105   597   %  0.7203
     598     -78.96741     44.23701        -34.73039  44.10189   598   %  0.7232
     599     -79.02623     44.31013        -34.71610  44.11618   599   %  0.7220
     600     -78.96108     44.50689        -34.45419  44.37809   600   %  0.7250
     601     -79.02348     44.58328        -34.44020  44.39208   601   %  0.7237
     602     -78.95576     44.80267        -34.15309  44.67919   602   %  0.7269
     603     -79.02065     44.88023        -34.14042  44.69186   603   %  0.7256
     604     -78.95325     45.11737        -33.83588  44.99640   604   %  0.7287
     605     -79.01999     45.19623        -33.82376  45.00851   605   %  0.7274
     606     -78.94734     45.44600        -33.50135  45.33093   606   %  0.7307
     607     -79.01669     45.52701        -33.48967  45.34260   607   %  0.7293
     608     -78.93934     45.81159        -33.12775  45.70452   608   %  0.7327
     609     -79.01243     45.89555        -33.11688  45.71540   609   %  0.7313


           POTENTIAL ENERGY HAS STOPPED DROPPING


 **********************
 *                    *
 * JOB ENDED NORMALLY *
 *                    *
 **********************



 TOTAL JOB TIME:             0.25 SECONDS

 == MOPAC DONE ==
