 *******************************************************************************
 ** Site#:  999         For non-commercial use only           Version 21.129  **
 *******************************************************************************
 ** Cite this program as: MOPAC2016, Version: 21.129 , James J. P. Stewart,   **
 ** Stewart Computational Chemistry, web-site: HTTP://OpenMOPAC.net.          **
 *******************************************************************************
 **                                                                           **
 **                                MOPAC2016                                  **
 **                                                                           **
 *******************************************************************************

                              PM7 CALCULATION RESULTS

 *******************************************************************************
 *  CALCULATION DONE:                                Sun Nov 20 12:23:42 2022  *
 *  PM7        - The PM7 Hamiltonian to be used
 *
 *
 *
 *                 CHARGE ON SYSTEM = 0
 *
 *
 *
 *  IRC=N      - INTRINSIC REACTION COORDINATE -1 DEFINED
 *  PRECISE    - TIGHTER CRITERIA TO BE USED
 *  THREADS=1  - MULTI-THREADING NOT USED
 *  T=         - A TIME OF 172800.0 SECONDS REQUESTED
 *  DUMP=N     - RESTART FILE WRITTEN EVERY 7200.0 SECONDS REQUESTED
 *  CYCLES=    - DO A MAXIMUM OF 5000 STEPS
 *  OLDENS     - INITIAL DENSITY MATRIX READ OFF DISK
 *******************************************************************************
   pm7 threads=1 charge=0 irc=-1 oldens precise cycles=5000
 title
 title
   ATOM   CHEMICAL          X               Y               Z
  NUMBER   SYMBOL      (ANGSTROMS)     (ANGSTROMS)     (ANGSTROMS)
 
     1       C          0.00000000  *   0.00000000  *   0.00000000  *
     2       O          1.31996841  *   0.00000000  *   0.00000000  *
     3       O         -0.52001108  *   1.19456039  *   0.00000000  *
     4       H         -0.05274126  *   2.03895193  *  -0.01095967  *
     5       H          2.01418338  *  -0.09561481  *  -0.60058076  *
 


          CARTESIAN COORDINATES 

    NO.       ATOM           X           Y           Z

     1         C          0.0000      0.0000      0.0000
     2         O          1.3200      0.0000      0.0000
     3         O         -0.5200      1.1946      0.0000
     4         H         -0.0527      2.0390     -0.0110
     5         H          2.0142     -0.0956     -0.6006

 General Reference for PM7:
 "Optimization of Parameters for Semiempirical Methods VI: More Modifications to the 
 NDDO Approximations and Re-optimization of Parameters", J. J. P. Stewart, J. Mol. Mod., 1:32, 19 (2013)
 https://link.springer.com/article/10.1007/s00894-012-1667-x

           Empirical Formula: C H2 O2  =     5 atoms



      MOLECULAR POINT GROUP   :   C1  


      RHF CALCULATION, NO. OF DOUBLY OCCUPIED LEVELS = 9



          HEAT OF FORMATION =     -67.930041 KCALS/MOLE


          GRADIENT NORM =   0.05894

          MOLECULAR WEIGHT =   46.03


          ESTIMATED TIME TO COMPLETE CALCULATION =        0.00 SECONDS

    FOR POINT-GROUP C1   THERE ARE   1 UNIQUE SYMMETRY FUNCTIONS.

 STEP:   1 TIME =     0.00 SECS, INTEGRAL =      0.00 TIME LEFT: 172800.00
 STEP:   2 TIME =     0.00 SECS, INTEGRAL =      0.00 TIME LEFT: 172800.00
 STEP:   3 TIME =     0.00 SECS, INTEGRAL =      0.01 TIME LEFT: 172799.99
 STEP:   4 TIME =     0.00 SECS, INTEGRAL =      0.01 TIME LEFT: 172799.99
 STEP:   5 TIME =     0.00 SECS, INTEGRAL =      0.01 TIME LEFT: 172799.99
 STEP:   6 TIME =     0.00 SECS, INTEGRAL =      0.02 TIME LEFT: 172799.98
 STEP:   7 TIME =     0.00 SECS, INTEGRAL =      0.02 TIME LEFT: 172799.98
 STEP:   8 TIME =     0.00 SECS, INTEGRAL =      0.02 TIME LEFT: 172799.98
 STEP:   9 TIME =     0.00 SECS, INTEGRAL =      0.02 TIME LEFT: 172799.98
 STEP:  10 TIME =     0.00 SECS, INTEGRAL =      0.02 TIME LEFT: 172799.98
 STEP:  11 TIME =     0.00 SECS, INTEGRAL =      0.02 TIME LEFT: 172799.98
 STEP:  12 TIME =     0.00 SECS, INTEGRAL =      0.02 TIME LEFT: 172799.98
 STEP:  13 TIME =     0.00 SECS, INTEGRAL =      0.03 TIME LEFT: 172799.97
 STEP:  14 TIME =     0.00 SECS, INTEGRAL =      0.03 TIME LEFT: 172799.97
 STEP:  15 TIME =     0.00 SECS, INTEGRAL =      0.03 TIME LEFT: 172799.97
  Stopping critera: r_ij>5*r_ij(0)
 
           INITIAL VELOCITY IN DRC (Angstroms/Femtosecond)
         0.02018         0.01928         0.03913
        -0.01432        -0.07576        -0.01046
        -0.00310         0.01261        -0.01495
        -0.06722         0.03400        -0.07800
         0.10325         0.73856         0.01511
 
  Deltat    =   0.24 fs
  Maxcyc    =      5000
  Jloop_lim =      5000
 
  Initial distance matrix
  Bond#     i     j    Ini_value(A)
      1     1     2          1.320
      2     1     3          1.303
      3     1     4          2.040
      4     1     5          2.104
      5     2     3          2.194
      6     2     4          2.458
      7     2     5          0.923
      8     3     4          0.965
      9     3     5          2.906
     10     4     5          3.029
 
 


     POINT   POTENTIAL  +  ENERGY LOST   =   TOTAL      ERROR    REF%   MOVEMENT
       1     -67.93004      0.00000        -67.93004   0.00000     1   %  0.0000
       2     -67.93005      0.00000        -67.93005  -0.00001     2   %  0.0019
       3     -67.93015      0.00000        -67.93015  -0.00011     3   %  0.0041
       4     -67.93181      0.00000        -67.93181  -0.00176     4   %  0.0147
       5     -67.93545      0.00000        -67.93545  -0.00541     5   %  0.0253
       6     -67.94105      0.00000        -67.94105  -0.01100     6   %  0.0359
       7     -67.94853      0.00000        -67.94853  -0.01849     7   %  0.0464
       8     -67.95797      0.00000        -67.95797  -0.02793     8   %  0.0570
       9     -67.96928      0.00000        -67.96928  -0.03924     9   %  0.0676
      10     -67.98242      0.00000        -67.98242  -0.05238    10   %  0.0782
      11     -67.99743      0.00000        -67.99743  -0.01501    11   %  0.0887
      12     -68.01088      0.02947        -67.98141   0.00101    12   %  0.0980
      13     -68.02321      0.05992        -67.96329   0.01913    13   %  0.1058
      14     -68.03451      0.09799        -67.93652   0.04590    14   %  0.1121
      15     -68.04724      0.14219        -67.90505   0.07737    15   %  0.1187
      16     -68.06090      0.18769        -67.87321   0.10921    16   %  0.1249
      17     -68.07618      0.23259        -67.84359   0.13883    17   %  0.1321
      18     -68.09294      0.27681        -67.81613   0.16629    18   %  0.1390
      19     -68.11155      0.32032        -67.79122   0.19119    19   %  0.1469
      20     -68.13184      0.36308        -67.76875   0.21366    20   %  0.1545
      21     -68.15412      0.40518        -67.74894   0.23348    21   %  0.1631
      22     -68.17835      0.44647        -67.73188   0.25054    22   %  0.1714
      23     -68.20510      0.48815        -67.71695   0.26547    23   %  0.1808
      24     -68.23385      0.52923        -67.70462   0.27780    24   %  0.1898
      25     -68.26495      0.57028        -67.69467   0.28775    25   %  0.1997
      26     -68.29825      0.61118        -67.68707   0.29535    26   %  0.2094
      27     -68.33339      0.65147        -67.68192   0.30049    27   %  0.2197
      28     -68.37032      0.69176        -67.67856   0.30386    28   %  0.2297
      29     -68.40941      0.73276        -67.67665   0.30577    29   %  0.2403
      30     -68.45010      0.77457        -67.67553   0.30689    30   %  0.2507
      31     -68.49191      0.81702        -67.67490   0.30752    31   %  0.2612
      32     -68.53558      0.86103        -67.67455   0.30786    32   %  0.2717
      33     -68.58070      0.90642        -67.67428   0.30814    33   %  0.2823
      34     -68.62678      0.95271        -67.67407   0.30835    34   %  0.2928
      35     -68.67421      1.00035        -67.67386   0.30855    35   %  0.3034
      36     -68.72264      1.04896        -67.67368   0.30874    36   %  0.3139
      37     -68.77190      1.09841        -67.67349   0.30893    37   %  0.3243
      38     -68.82245      1.14913        -67.67332   0.30910    38   %  0.3348
      39     -68.87358      1.20043        -67.67315   0.30927    39   %  0.3452
      40     -68.92589      1.25290        -67.67299   0.30943    40   %  0.3556
      41     -68.97974      1.30691        -67.67283   0.30959    41   %  0.3662
      42     -69.03389      1.36121        -67.67268   0.30974    42   %  0.3766
      43     -69.08893      1.41639        -67.67254   0.30988    43   %  0.3870
      44     -69.14443      1.47203        -67.67241   0.31001    44   %  0.3974
      45     -69.20072      1.52844        -67.67228   0.31014    45   %  0.4078
      46     -69.25737      1.58520        -67.67217   0.31025    46   %  0.4181
      47     -69.31498      1.64292        -67.67206   0.31036    47   %  0.4285
      48     -69.37337      1.70141        -67.67196   0.31046    48   %  0.4389
      49     -69.43204      1.76017        -67.67186   0.31055    49   %  0.4492
      50     -69.49078      1.81900        -67.67178   0.31064    50   %  0.4595
      51     -69.55006      1.87836        -67.67170   0.31071    51   %  0.4698
      52     -69.60959      1.93795        -67.67164   0.31078    52   %  0.4800
      53     -69.66908      1.99750        -67.67158   0.31084    53   %  0.4902
      54     -69.72885      2.05733        -67.67153   0.31089    54   %  0.5004
      55     -69.78879      2.11732        -67.67147   0.31094    55   %  0.5105
      56     -69.84968      2.17824        -67.67145   0.31097    56   %  0.5208
      57     -69.93192      2.26052        -67.67140   0.31101    57   %  0.5346
      58     -70.02173      2.35037        -67.67136   0.31106    58   %  0.5496
      59     -70.11457      2.44324        -67.67132   0.31110    59   %  0.5652
      60     -70.20709      2.53578        -67.67131   0.31111    60   %  0.5806
      61     -70.29919      2.62787        -67.67132   0.31110    61   %  0.5960
      62     -70.39056      2.71919        -67.67136   0.31106    62   %  0.6114
      63     -70.47962      2.80819        -67.67143   0.31098    63   %  0.6263
      64     -70.55296      2.88142        -67.67154   0.31088    64   %  0.6387
      65     -70.61031      2.93869        -67.67162   0.31079    65   %  0.6485
      66     -70.66703      2.99531        -67.67172   0.31070    66   %  0.6582
      67     -70.72397      3.05218        -67.67179   0.31063    67   %  0.6679
      68     -70.78010      3.10824        -67.67187   0.31055    68   %  0.6776
      69     -70.83563      3.16365        -67.67198   0.31044    69   %  0.6872
      70     -70.89052      3.21846        -67.67206   0.31035    70   %  0.6968
      71     -70.94445      3.27227        -67.67218   0.31024    71   %  0.7063
      72     -70.99779      3.32550        -67.67229   0.31013    72   %  0.7158
      73     -71.05003      3.37763        -67.67240   0.31002    73   %  0.7251
      74     -71.10236      3.42985        -67.67251   0.30990    74   %  0.7346
      75     -71.15333      3.48069        -67.67264   0.30978    75   %  0.7438
      76     -71.20326      3.53050        -67.67276   0.30966    76   %  0.7530
      77     -71.25302      3.58013        -67.67288   0.30953    77   %  0.7623
      78     -71.30217      3.62916        -67.67302   0.30940    78   %  0.7715
      79     -71.35046      3.67731        -67.67315   0.30927    79   %  0.7807
      80     -71.39708      3.72379        -67.67329   0.30913    80   %  0.7896
      81     -71.44333      3.76991        -67.67342   0.30899    81   %  0.7986
      82     -71.48861      3.81504        -67.67357   0.30885    82   %  0.8075
      83     -71.53284      3.85913        -67.67371   0.30871    83   %  0.8164
      84     -71.57652      3.90267        -67.67385   0.30856    84   %  0.8252
      85     -71.61856      3.94455        -67.67400   0.30841    85   %  0.8339
      86     -71.65986      3.98571        -67.67415   0.30827    86   %  0.8425
      87     -71.70071      4.02641        -67.67430   0.30812    87   %  0.8512
      88     -71.73983      4.06537        -67.67446   0.30796    88   %  0.8596
      89     -71.77794      4.10333        -67.67461   0.30781    89   %  0.8680
      90     -71.81541      4.14064        -67.67477   0.30765    90   %  0.8764
      91     -71.85199      4.17706        -67.67493   0.30749    91   %  0.8847
      92     -71.88708      4.21198        -67.67509   0.30733    92   %  0.8929
      93     -71.92164      4.24639        -67.67525   0.30717    93   %  0.9011
      94     -71.95515      4.27973        -67.67542   0.30700    94   %  0.9093
      95     -71.98753      4.31194        -67.67559   0.30683    95   %  0.9173
      96     -72.01852      4.34275        -67.67576   0.30666    96   %  0.9253
      97     -72.04852      4.37259        -67.67593   0.30648    97   %  0.9331
      98     -72.07758      4.40147        -67.67611   0.30631    98   %  0.9410
      99     -72.10539      4.42911        -67.67629   0.30613    99   %  0.9487
     100     -72.13212      4.45565        -67.67647   0.30595   100   %  0.9564
     101     -72.15767      4.48102        -67.67665   0.30577   101   %  0.9639
     102     -72.18227      4.50544        -67.67683   0.30559   102   %  0.9715
     103     -72.20576      4.52874        -67.67702   0.30540   103   %  0.9790
     104     -72.22815      4.55094        -67.67721   0.30521   104   %  0.9864
     105     -72.24929      4.57188        -67.67741   0.30501   105   %  0.9938
     106     -72.26919      4.59160        -67.67759   0.30483   106   %  1.0009
     107     -72.28799      4.61023        -67.67776   0.30465   107   %  1.0082
     108     -72.30545      4.62774        -67.67771   0.30471   108   %  1.0150
     109     -72.32098      4.64463        -67.67635   0.30607   109   %  1.0227
     110     -72.33131      4.66479        -67.66652   0.31590   110   %  1.0267
     111     -72.33760      4.69638        -67.64122   0.34119   111   %  1.0334
     112     -72.34373      4.74022        -67.60351   0.37891   112   %  1.0331
     113     -72.34890      4.78807        -67.56083   0.42159   113   %  1.0392
     114     -72.35423      4.83728        -67.51695   0.46547   114   %  1.0386
     115     -72.35910      4.88529        -67.47381   0.50861   115   %  1.0446
     116     -72.36331      4.93417        -67.42913   0.55328   116   %  1.0437
     117     -72.36760      4.98329        -67.38430   0.59811   117   %  1.0496
     118     -72.37137      5.03299        -67.33838   0.64404   118   %  1.0485
     119     -72.37506      5.08233        -67.29273   0.68969   119   %  1.0542
     120     -72.37817      5.13249        -67.24567   0.73674   120   %  1.0529
     121     -72.38160      5.18203        -67.19956   0.78286   121   %  1.0584
     122     -72.38389      5.23290        -67.15099   0.83143   122   %  1.0569
     123     -72.38724      5.28314        -67.10410   0.87831   123   %  1.0624
     124     -72.38882      5.33477        -67.05405   0.92837   124   %  1.0606
     125     -72.39223      5.38526        -67.00698   0.97544   125   %  1.0660
     126     -72.39305      5.43712        -66.95593   1.02649   126   %  1.0641
     127     -72.39644      5.48810        -66.90834   1.07408   127   %  1.0693
     128     -72.39702      5.53951        -66.85751   1.12491   128   %  1.0673
     129     -72.40022      5.58920        -66.81102   1.17140   129   %  1.0724
     130     -72.39979      5.64120        -66.75859   1.22383   130   %  1.0702
     131     -72.40343      5.69218        -66.71125   1.27117   131   %  1.0752
     132     -72.40295      5.74337        -66.65958   1.32283   132   %  1.0730
     133     -72.40605      5.79339        -66.61266   1.36975   133   %  1.0779
     134     -72.40519      5.84499        -66.56020   1.42222   134   %  1.0755
     135     -72.40858      5.89497        -66.51361   1.46881   135   %  1.0803
     136     -72.40704      5.94672        -66.46031   1.52210   136   %  1.0778
     137     -72.41055      5.99751        -66.41304   1.56938   137   %  1.0826
     138     -72.40890      6.04949        -66.35942   1.62300   138   %  1.0800
     139     -72.41199      6.10125        -66.31074   1.67167   139   %  1.0848
     140     -72.41043      6.15449        -66.25593   1.72648   140   %  1.0820
     141     -72.41369      6.20607        -66.20762   1.77480   141   %  1.0867
     142     -72.41163      6.25903        -66.15260   1.82982   142   %  1.0839
     143     -72.41533      6.30950        -66.10583   1.87659   143   %  1.0884
     144     -72.41223      6.36260        -66.04963   1.93279   144   %  1.0855
     145     -72.41657      6.41403        -66.00255   1.97987   145   %  1.0901
     146     -72.41340      6.46656        -65.94684   2.03558   146   %  1.0871
     147     -72.41731      6.51817        -65.89914   2.08328   147   %  1.0917
     148     -72.41464      6.57029        -65.84436   2.13806   148   %  1.0887
     149     -72.41777      6.62214        -65.79563   2.18679   149   %  1.0932
     150     -72.41581      6.67414        -65.74167   2.24075   150   %  1.0901
     151     -72.41815      6.72605        -65.69210   2.29032   151   %  1.0946
     152     -72.41632      6.77942        -65.63690   2.34552   152   %  1.0914
     153     -72.41926      6.83042        -65.58884   2.39358   153   %  1.0957
     154     -72.41622      6.88394        -65.53228   2.45014   154   %  1.0925
     155     -72.41989      6.93617        -65.48371   2.49870   155   %  1.0969
     156     -72.41674      6.98967        -65.42708   2.55534   156   %  1.0936
     157     -72.42063      7.04070        -65.37993   2.60249   157   %  1.0979
     158     -72.41659      7.09443        -65.32216   2.66026   158   %  1.0945
     159     -72.42110      7.14662        -65.27448   2.70794   159   %  1.0989
     160     -72.41707      7.20017        -65.21690   2.76552   160   %  1.0955
     161     -72.42171      7.25094        -65.17077   2.81165   161   %  1.0997
     162     -72.41673      7.30485        -65.11189   2.87053   162   %  1.0963
     163     -72.42245      7.35546        -65.06700   2.91542   163   %  1.1005
     164     -72.41672      7.40857        -65.00815   2.97427   164   %  1.0971
     165     -72.42261      7.45983        -64.96278   3.01963   165   %  1.1013
     166     -72.41651      7.51459        -64.90192   3.08050   166   %  1.0978
     167     -72.42333      7.56542        -64.85790   3.12451   167   %  1.1019
     168     -72.41613      7.61986        -64.79627   3.18615   168   %  1.0984
     169     -72.42367      7.67103        -64.75264   3.22978   169   %  1.1026
     170     -72.41613      7.72537        -64.69076   3.29166   170   %  1.0991
     171     -72.42387      7.77672        -64.64714   3.33528   171   %  1.1032
     172     -72.41628      7.83094        -64.58534   3.39708   172   %  1.0997
     173     -72.42402      7.88216        -64.54186   3.44056   173   %  1.1038
     174     -72.41637      7.93633        -64.48004   3.50237   174   %  1.1003
     175     -72.42411      7.98771        -64.43640   3.54602   175   %  1.1043
     176     -72.41644      8.04212        -64.37433   3.60809   176   %  1.1008
     177     -72.42424      8.09354        -64.33071   3.65171   177   %  1.1049
     178     -72.41666      8.14752        -64.26914   3.71328   178   %  1.1013
     179     -72.42433      8.19850        -64.22584   3.75658   179   %  1.1053
     180     -72.41659      8.25268        -64.16391   3.81851   180   %  1.1017
     181     -72.42434      8.30440        -64.11994   3.86248   181   %  1.1058
     182     -72.41666      8.35910        -64.05756   3.92486   182   %  1.1022
     183     -72.42453      8.41040        -64.01413   3.96828   183   %  1.1062
     184     -72.41617      8.46587        -63.95031   4.03211   184   %  1.1025
     185     -72.42480      8.51757        -63.90723   4.07519   185   %  1.1065
     186     -72.41577      8.57351        -63.84226   4.14016   186   %  1.1028
     187     -72.42518      8.62467        -63.80051   4.18191   187   %  1.1068
     188     -72.41538      8.68017        -63.73521   4.24721   188   %  1.1031
     189     -72.42537      8.73121        -63.69416   4.28826   189   %  1.1071
     190     -72.41534      8.78616        -63.62918   4.35324   190   %  1.1034
     191     -72.42537      8.83736        -63.58801   4.39441   191   %  1.1074
     192     -72.41507      8.89319        -63.52188   4.46054   192   %  1.1037
     193     -72.42542      8.94522        -63.48021   4.50221   193   %  1.1077
     194     -72.41548      9.00030        -63.41518   4.56724   194   %  1.1040
     195     -72.42524      9.05228        -63.37296   4.60946   195   %  1.1081
     196     -72.41578      9.10747        -63.30831   4.67411   196   %  1.1043
     197     -72.42531      9.15875        -63.26656   4.71586   197   %  1.1083
     198     -72.41516      9.21513        -63.20003   4.78239   198   %  1.1045
     199     -72.42551      9.26719        -63.15832   4.82410   199   %  1.1085
     200     -72.41484      9.32393        -63.09092   4.89150   200   %  1.1047
     201     -72.42558      9.37642        -63.04916   4.93326   201   %  1.1087
     202     -72.41486      9.43302        -62.98185   5.00057   202   %  1.1049
     203     -72.42563      9.48524        -62.94038   5.04204   203   %  1.1089
     204     -72.41486      9.54163        -62.87323   5.10919   204   %  1.1051
     205     -72.42559      9.59405        -62.83155   5.15087   205   %  1.1091
     206     -72.41470      9.65107        -62.76364   5.21878   206   %  1.1053
     207     -72.42592      9.70231        -62.72361   5.25881   207   %  1.1092
     208     -72.41356      9.76035        -62.65321   5.32920   208   %  1.1054
     209     -72.42622      9.81228        -62.61394   5.36848   209   %  1.1093
     210     -72.41324      9.86985        -62.54338   5.43904   210   %  1.1055
     211     -72.42623      9.92210        -62.50413   5.47829   211   %  1.1095
     212     -72.41272      9.98085        -62.43187   5.55054   212   %  1.1056
     213     -72.42649     10.03282        -62.39367   5.58875   213   %  1.1095
     214     -72.41168     10.09265        -62.31903   5.66339   214   %  1.1057
     215     -72.42661     10.14591        -62.28070   5.70172   215   %  1.1096
     216     -72.41197     10.20471        -62.20726   5.77516   216   %  1.1059
     217     -72.42668     10.25647        -62.17021   5.81221   217   %  1.1097
     218     -72.41170     10.31498        -62.09671   5.88571   218   %  1.1060
     219     -72.42673     10.36675        -62.05998   5.92244   219   %  1.1099
     220     -72.41056     10.42746        -61.98310   5.99932   220   %  1.1060
     221     -72.42691     10.48051        -61.94640   6.03602   221   %  1.1099
     222     -72.40952     10.54287        -61.86665   6.11577   222   %  1.1060
     223     -72.42708     10.59620        -61.83088   6.15154   223   %  1.1099
     224     -72.40925     10.65789        -61.75137   6.23105   224   %  1.1061
     225     -72.42716     10.71021        -61.71695   6.26547   225   %  1.1100
     226     -72.40766     10.77421        -61.63345   6.34897   226   %  1.1061
     227     -72.42731     10.82774        -61.59957   6.38285   227   %  1.1100
     228     -72.40691     10.89219        -61.51472   6.46770   228   %  1.1061
     229     -72.42737     10.94525        -61.48212   6.50030   229   %  1.1100
     230     -72.40561     11.01122        -61.39439   6.58803   230   %  1.1061
     231     -72.42740     11.06585        -61.36155   6.62087   231   %  1.1101
     232     -72.40473     11.13340        -61.27133   6.71109   232   %  1.1062
     233     -72.42743     11.18762        -61.23981   6.74261   233   %  1.1100
     234     -72.40335     11.25678        -61.14657   6.83585   234   %  1.1062
     235     -72.42742     11.31257        -61.11485   6.86757   235   %  1.1101
     236     -72.40337     11.38135        -61.02202   6.96040   236   %  1.1063
     237     -72.42741     11.43636        -60.99105   6.99137   237   %  1.1102
     238     -72.40342     11.50452        -60.89891   7.08351   238   %  1.1064
     239     -72.42740     11.55846        -60.86894   7.11348   239   %  1.1102
     240     -72.40188     11.62906        -60.77282   7.20960   240   %  1.1064
     241     -72.42737     11.68506        -60.74230   7.24012   241   %  1.1103
     242     -72.40160     11.75616        -60.64544   7.33698   242   %  1.1065
     243     -72.42734     11.81169        -60.61564   7.36677   243   %  1.1104
     244     -72.39994     11.88570        -60.51424   7.46817   244   %  1.1065
     245     -72.42719     11.94173        -60.48546   7.49696   245   %  1.1103
     246     -72.39756     12.01959        -60.37798   7.60444   246   %  1.1064
     247     -72.42696     12.07683        -60.35013   7.63229   247   %  1.1102
     248     -72.39591     12.15700        -60.23891   7.74351   248   %  1.1064
     249     -72.42680     12.21524        -60.21156   7.77086   249   %  1.1103
     250     -72.39413     12.29836        -60.09577   7.88665   250   %  1.1064
     251     -72.42656     12.35776        -60.06880   7.91362   251   %  1.1103
     252     -72.39191     12.44505        -59.94686   8.03555   252   %  1.1063
     253     -72.42604     12.50470        -59.92134   8.06108   253   %  1.1102
     254     -72.38892     12.59748        -59.79144   8.19098   254   %  1.1063
     255     -72.42553     12.65895        -59.76657   8.21585   255   %  1.1101
     256     -72.38621     12.75664        -59.62956   8.35286   256   %  1.1062
     257     -72.42476     12.81868        -59.60608   8.37634   257   %  1.1101
     258     -72.38222     12.92448        -59.45774   8.52468   258   %  1.1061
     259     -72.42390     12.98921        -59.43470   8.54772   259   %  1.1100
     260     -72.38069     13.09837        -59.28232   8.70010   260   %  1.1062
     261     -72.42340     13.16295        -59.26046   8.72196   261   %  1.1100
     262     -72.37748     13.27837        -59.09911   8.88331   262   %  1.1061
     263     -72.42237     13.34452        -59.07785   8.90457   263   %  1.1100
     264     -72.37366     13.46903        -58.90463   9.07779   264   %  1.1061
     265     -72.42104     13.53661        -58.88443   9.09799   265   %  1.1099
     266     -72.36860     13.67327        -58.69533   9.28709   266   %  1.1060
     267     -72.41942     13.74368        -58.67575   9.30667   267   %  1.1098
     268     -72.36377     13.89282        -58.47095   9.51147   268   %  1.1059
     269     -72.41749     13.96495        -58.45254   9.52988   269   %  1.1097
     270     -72.35810     14.12984        -58.22826   9.75415   270   %  1.1058
     271     -72.41472     14.20332        -58.21141   9.77101   271   %  1.1096


           POTENTIAL ENERGY HAS STOPPED DROPPING


 **********************
 *                    *
 * JOB ENDED NORMALLY *
 *                    *
 **********************



 TOTAL JOB TIME:             0.14 SECONDS

 == MOPAC DONE ==
