 *******************************************************************************
 ** Site#:  999         For non-commercial use only           Version 21.129  **
 *******************************************************************************
 ** Cite this program as: MOPAC2016, Version: 21.129 , James J. P. Stewart,   **
 ** Stewart Computational Chemistry, web-site: HTTP://OpenMOPAC.net.          **
 *******************************************************************************
 **                                                                           **
 **                                MOPAC2016                                  **
 **                                                                           **
 *******************************************************************************

                              PM7 CALCULATION RESULTS

 *******************************************************************************
 *  CALCULATION DONE:                                Sun Nov 20 12:22:41 2022  *
 *  PM7        - The PM7 Hamiltonian to be used
 *
 *
 *
 *                 CHARGE ON SYSTEM = 0
 *
 *
 *
 *  PRECISE    - TIGHTER CRITERIA TO BE USED
 *  TS         - USE EF ROUTINE FOR TS SEARCH
 *  THREADS=1  - MULTI-THREADING NOT USED
 *  T=         - A TIME OF 500.0 SECONDS REQUESTED
 *  DUMP=N     - RESTART FILE WRITTEN EVERY 7200.0 SECONDS REQUESTED
 *  CYCLES=    - DO A MAXIMUM OF 1000 STEPS
 *  DDMAX=     - MAXIMUM TRUST RADIUS  0.200 ANG/RAD
 *  DENOUT     - SAVE DENSITY MATRIX FOR USE LATER
 *******************************************************************************
ts   pm7 threads=1 charge=0 precise cycles=1000 t=500 ddmax=0.2 denout
 title
 title
   ATOM   CHEMICAL          X               Y               Z
  NUMBER   SYMBOL      (ANGSTROMS)     (ANGSTROMS)     (ANGSTROMS)
 
     1       C         -0.58033001  *   0.28114000  *   0.65644997  *
     2       O         -0.28388793  *  -0.69963228  *   0.14770435  *
     3       O          2.10050988  *   0.46777999  *  -0.38751000  *
     4       H          1.60712497  *  -0.34354315  *  -0.50015888  *
     5       H          2.94742123  *   0.32225960  *  -0.80030507  *
 


          CARTESIAN COORDINATES 

    NO.       ATOM           X           Y           Z

     1         C         -0.5803      0.2811      0.6564
     2         O         -0.2839     -0.6996      0.1477
     3         O          2.1005      0.4678     -0.3875
     4         H          1.6071     -0.3435     -0.5002
     5         H          2.9474      0.3223     -0.8003

 General Reference for PM7:
 "Optimization of Parameters for Semiempirical Methods VI: More Modifications to the 
 NDDO Approximations and Re-optimization of Parameters", J. J. P. Stewart, J. Mol. Mod., 1:32, 19 (2013)
 https://link.springer.com/article/10.1007/s00894-012-1667-x

           Empirical Formula: C H2 O2  =     5 atoms



      MOLECULAR POINT GROUP   :   Cs  


      RHF CALCULATION, NO. OF DOUBLY OCCUPIED LEVELS = 9


          Transition state refinement using EF

          HESSIAN CALCULATED NUMERICALLY

 CYCLE:     1 TIME:   0.004 TIME LEFT:  8.33M  GRAD.:     1.489 HEAT: -78.82759
 CYCLE:     2 TIME:   0.004 TIME LEFT:  8.33M  GRAD.:     3.889 HEAT: -78.80523
 CYCLE:     3 TIME:   0.000 TIME LEFT:  8.33M  GRAD.:     2.076 HEAT: -78.79550
 CYCLE:     4 TIME:   0.000 TIME LEFT:  8.33M  GRAD.:    10.820 HEAT: -78.73059
 CYCLE:     5 TIME:   0.000 TIME LEFT:  8.33M  GRAD.:     6.539 HEAT: -78.73186
 CYCLE:     6 TIME:   0.000 TIME LEFT:  8.33M  GRAD.:     6.009 HEAT: -78.75360
 CYCLE:     7 TIME:   0.000 TIME LEFT:  8.33M  GRAD.:     4.028 HEAT: -78.75775
 CYCLE:     7 TIME:   0.000 TIME LEFT:  8.33M  GRAD.:     2.109 HEAT: -78.75894
 CYCLE:     8 TIME:   0.004 TIME LEFT:  8.33M  GRAD.:     1.883 HEAT: -78.75674
 CYCLE:     9 TIME:   0.000 TIME LEFT:  8.33M  GRAD.:     0.581 HEAT: -78.75874
 CYCLE:    10 TIME:   0.000 TIME LEFT:  8.33M  GRAD.:     0.179 HEAT: -78.75887
 CYCLE:    11 TIME:   0.000 TIME LEFT:  8.33M  GRAD.:     0.096 HEAT: -78.75893
 CYCLE:    12 TIME:   0.000 TIME LEFT:  8.33M  GRAD.:     0.060 HEAT: -78.75893
 CYCLE:    13 TIME:   0.000 TIME LEFT:  8.33M  GRAD.:     0.025 HEAT: -78.75894

     GRADIENT =  0.02522 IS LESS THAN CUTOFF =  0.05000



 -------------------------------------------------------------------------------
 ts   pm7 threads=1 charge=0 precise cycles=1000 t=500 ddmax=0.2 denout
 title
 title


     GEOMETRY OPTIMISED USING EIGENVECTOR FOLLOWING (TS).     
     SCF FIELD WAS ACHIEVED                                   


                              PM7 CALCULATION
                                                       MOPAC2016 (Version: 21.129 )
                                                       Sun Nov 20 12:22:41 2022




          FINAL HEAT OF FORMATION =        -78.75894 KCAL/MOL =    -329.52742 KJ/MOL


          TOTAL ENERGY            =       -740.18283 EV
          ELECTRONIC ENERGY       =      -1515.99585 EV  POINT GROUP:     Cs  
          CORE-CORE REPULSION     =        775.81303 EV
          COSMO AREA              =         83.98 SQUARE ANGSTROMS
          COSMO VOLUME            =         63.57 CUBIC ANGSTROMS

          GRADIENT NORM           =          0.02522 = 0.01128 PER ATOM
          IONIZATION POTENTIAL    =         12.164065 EV
          HOMO LUMO ENERGIES (EV) =        -12.164  1.828
          NO. OF FILLED LEVELS    =          9
          MOLECULAR WEIGHT        =         46.0256

          MOLECULAR DIMENSIONS (Angstroms)

            Atom       Atom       Distance
            H     5    C     1     3.70964
            O     3    O     2     1.11278
            H     4    C     1     0.04846


          SCF CALCULATIONS        =         32
 
          WALL-CLOCK TIME         =          0.020 SECONDS
          COMPUTATION TIME        =          0.017 SECONDS




   ATOM   CHEMICAL          X               Y               Z
  NUMBER   SYMBOL      (ANGSTROMS)     (ANGSTROMS)     (ANGSTROMS)
 
     1       C         -0.51017482  *   0.30870399  *   0.63746317  *
     2       O         -0.31476868  *  -0.71184500  *   0.15987791  *
     3       O          2.04667831  *   0.44308065  *  -0.38423038  *
     4       H          1.70759293  *  -0.43039766  *  -0.58534278  *
     5       H          2.94228428  *   0.46102673  *  -0.71114607  *

                             CARTESIAN COORDINATES

   1    C       -0.510174817     0.308703991     0.637463171
   2    O       -0.314768683    -0.711844999     0.159877908
   3    O        2.046678315     0.443080648    -0.384230378
   4    H        1.707592927    -0.430397659    -0.585342783
   5    H        2.942284282     0.461026726    -0.711146073


           Empirical Formula: C H2 O2  =     5 atoms



      MOLECULAR POINT GROUP   :   Cs  


                  EIGENVALUES  
 -32.47698 -29.58357 -19.57978 -18.04476 -14.95973 -14.87431 -14.29093 -12.25343
 -12.16406   1.82847   1.86817   4.04218   5.77655   6.38748


              NET ATOMIC CHARGES AND DIPOLE CONTRIBUTIONS

  ATOM NO.   TYPE          CHARGE      No. of ELECS.   s-Pop       p-Pop       
    1          C           0.490081        3.5099     1.79202     1.71789
    2          O          -0.486468        6.4865     1.83377     4.65270
    3          O          -0.679785        6.6798     1.81010     4.86968
    4          H           0.341467        0.6585     0.65853
    5          H           0.334705        0.6653     0.66530
 DIPOLE           X         Y         Z       TOTAL
 POINT-CHG.     0.383     0.979     0.278     1.087
 HYBRID         0.507    -1.655    -0.844     1.926
 SUM            0.889    -0.676    -0.566     1.252


          ATOMIC ORBITAL ELECTRON POPULATIONS

     Atom    s        px        py        pz   
    1  C   1.79202   0.43606   0.77666   0.50518
    2  O   1.83377   1.57766   1.51153   1.56351
    3  O   1.81010   1.46303   1.51564   1.89101
    4  H   0.65853
    5  H   0.66530
 *******************************************************************************
 ** Site#:  999         For non-commercial use only           Version 21.129  **
 *******************************************************************************
 ** Cite this program as: MOPAC2016, Version: 21.129 , James J. P. Stewart,   **
 ** Stewart Computational Chemistry, web-site: HTTP://OpenMOPAC.net.          **
 *******************************************************************************
 **                                                                           **
 **                                MOPAC2016                                  **
 **                                                                           **
 *******************************************************************************

                              PM7 CALCULATION RESULTS

 *******************************************************************************
 *  CALCULATION DONE:                                Sun Nov 20 12:22:41 2022  *
 *  PM7        - The PM7 Hamiltonian to be used
 *
 *
 *
 *                 CHARGE ON SYSTEM = 0
 *
 *
 *
 *  OLDGEO     - PREVIOUS GEOMETRY TO BE USED
 *  FORCE      - FORCE CALCULATION SPECIFIED
 *  THREADS=1  - MULTI-THREADING NOT USED
 *  T=         - A TIME OF 172800.0 SECONDS REQUESTED
 *  DUMP=N     - RESTART FILE WRITTEN EVERY 7200.0 SECONDS REQUESTED
 *  OLDENS     - INITIAL DENSITY MATRIX READ OFF DISK
 *******************************************************************************
  pm7 threads=1 charge=0 oldgeo oldens force
 title
 freq calc
   ATOM   CHEMICAL          X               Y               Z
  NUMBER   SYMBOL      (ANGSTROMS)     (ANGSTROMS)     (ANGSTROMS)
 
     1       C         -0.51017482  *   0.30870399  *   0.63746317  *
     2       O         -0.31476868  *  -0.71184500  *   0.15987791  *
     3       O          2.04667831  *   0.44308065  *  -0.38423038  *
     4       H          1.70759293  *  -0.43039766  *  -0.58534278  *
     5       H          2.94228428  *   0.46102673  *  -0.71114607  *
 


          CARTESIAN COORDINATES 

    NO.       ATOM           X           Y           Z

     1         C         -0.5102      0.3087      0.6375
     2         O         -0.3148     -0.7118      0.1599
     3         O          2.0467      0.4431     -0.3842
     4         H          1.7076     -0.4304     -0.5853
     5         H          2.9423      0.4610     -0.7111

 General Reference for PM7:
 "Optimization of Parameters for Semiempirical Methods VI: More Modifications to the 
 NDDO Approximations and Re-optimization of Parameters", J. J. P. Stewart, J. Mol. Mod., 1:32, 19 (2013)
 https://link.springer.com/article/10.1007/s00894-012-1667-x

           Empirical Formula: C H2 O2  =     5 atoms



      MOLECULAR POINT GROUP   :   Cs  


      RHF CALCULATION, NO. OF DOUBLY OCCUPIED LEVELS = 9



          HEAT OF FORMATION =     -78.758944 KCALS/MOLE


          CARTESIAN COORDINATE DERIVATIVES

   NUMBER  ATOM         X            Y            Z

     1       C     -0.003132    -0.005903    -0.001904
     2       O      0.000500     0.013071     0.003138
     3       O      0.014997     0.006334    -0.002052
     4       H     -0.004383     0.001243    -0.001401
     5       H     -0.008055    -0.014675     0.002243
 


          GRADIENT NORM =   0.02840

          MOLECULAR WEIGHT =   46.03



          ROTATIONAL CONSTANTS IN CM(-1)

          A =    1.75036955   B =    0.21097927   C =    0.18828982



           PRINCIPAL MOMENTS OF INERTIA IN UNITS OF 10**(-40)*GRAM-CM**2

          A =       15.9925   B =      132.6802   C =      148.6685


          ORIENTATION OF MOLECULE IN FORCE CALCULATION

    NO.       ATOM         X         Y         Z

     1          C      -0.7122   -1.0476   -0.0007
     2          O       0.4313   -1.0476   -0.0007
     3          O       0.0314    1.6069   -0.0007
     4          H       0.8370    1.0878   -0.0050
     5          H       0.3050    2.5196    0.0360


    FIRST DERIVATIVES WILL BE USED IN THE CALCULATION OF SECOND DERIVATIVES

          ESTIMATED TIME TO COMPLETE CALCULATION =        0.00 SECONDS

    FOR POINT-GROUP Cs   THERE ARE   2 UNIQUE SYMMETRY FUNCTIONS.

 STEP:   1 TIME =     0.00 SECS, INTEGRAL =      0.00 TIME LEFT: 172800.00
 STEP:   2 TIME =     0.00 SECS, INTEGRAL =      0.00 TIME LEFT: 172800.00
 STEP:   3 TIME =     0.00 SECS, INTEGRAL =      0.00 TIME LEFT: 172800.00
 STEP:   4 TIME =     0.00 SECS, INTEGRAL =      0.00 TIME LEFT: 172800.00
 STEP:   5 TIME =     0.00 SECS, INTEGRAL =      0.00 TIME LEFT: 172800.00
 STEP:   6 TIME =     0.00 SECS, INTEGRAL =      0.01 TIME LEFT: 172799.99
 STEP:   7 TIME =     0.00 SECS, INTEGRAL =      0.01 TIME LEFT: 172799.99
 STEP:   8 TIME =     0.00 SECS, INTEGRAL =      0.01 TIME LEFT: 172799.99
 STEP:   9 TIME =     0.00 SECS, INTEGRAL =      0.01 TIME LEFT: 172799.99
 STEP:  10 TIME =     0.00 SECS, INTEGRAL =      0.01 TIME LEFT: 172799.99
 STEP:  11 TIME =     0.00 SECS, INTEGRAL =      0.01 TIME LEFT: 172799.99
 STEP:  12 TIME =     0.00 SECS, INTEGRAL =      0.01 TIME LEFT: 172799.99
 STEP:  13 TIME =     0.00 SECS, INTEGRAL =      0.01 TIME LEFT: 172799.99
 STEP:  14 TIME =     0.00 SECS, INTEGRAL =      0.01 TIME LEFT: 172799.99
 STEP:  15 TIME =     0.00 SECS, INTEGRAL =      0.01 TIME LEFT: 172799.99

(To convert to Hartree/Bohr^2, multiply by (10^(-21) x N x a0^2)/(4.184 x 627.51) =  0.0642)


           FORCE MATRIX IN MILLIDYNES/ANGSTROM


                  C  1       O  2       O  3       H  4       H  5
 ------------------------------------------------------------------
     C    1  16.595439
     O    2  16.515242  16.465236
     O    3   0.097850   0.192641   6.480549
     H    4   0.153974   0.127477   4.004343   4.421593
     H    5   0.031614   0.029303   4.057379   0.819767   4.499316


          HEAT OF FORMATION =     -78.758944 KCALS/MOLE

          ZERO POINT ENERGY      14.033 KCAL/MOL

         NOTE: SYSTEM IS NOT A GROUND STATE, THEREFORE ZERO POINT
         ENERGY IS NOT MEANINGFULL. ZERO POINT ENERGY PRINTED
         DOES NOT INCLUDE THE  1 IMAGINARY FREQUENCIES


           NORMAL COORDINATE ANALYSIS (Total motion = 1 Angstrom)


   Root No.       1         2         3         4         5         6         7         8

                 1 A'      1 A"      2 A'      3 A'      2 A"      4 A'      5 A'      6 A'  

                -101.9     103.5     185.4     246.4     260.6    1375.7    2022.5    2782.1
  
           1    0.0129   -0.0000   -0.0448   -0.0122   -0.0000    0.0028    0.5267    0.0023
           2    0.1687   -0.0001   -0.1657   -0.0638   -0.0001   -0.0012    0.0035   -0.0001
           3    0.0011    0.0131    0.0005    0.0009    0.0436   -0.0010    0.0000    0.0005
           4    0.0123   -0.0000   -0.0471   -0.0156    0.0000   -0.0026   -0.3938   -0.0017
           5   -0.0095   -0.0000    0.2536   -0.0468    0.0000   -0.0002    0.0002   -0.0003
           6   -0.0008    0.0085   -0.0003   -0.0008   -0.0393    0.0008   -0.0000   -0.0001
           7   -0.0105    0.0000    0.0779    0.0314    0.0000   -0.0488    0.0029   -0.0220
           8   -0.1292    0.0001   -0.1309    0.0604    0.0001   -0.0175   -0.0017    0.0431
           9    0.0000   -0.0543    0.0000    0.0002   -0.0481   -0.0002   -0.0000   -0.0001
          10    0.2090    0.0001    0.2191    0.2322   -0.0001    0.3175   -0.0631    0.4743
          11    0.2064    0.0003    0.0845    0.3738   -0.0008    0.3533   -0.0198   -0.3319
          12   -0.0007   -0.1771   -0.0008   -0.0009    0.7489    0.0018    0.0001   -0.0009
          13   -0.3916   -0.0002   -0.1738   -0.3370   -0.0002    0.4639   -0.0096   -0.1254
          14   -0.0145   -0.0010   -0.0579    0.1703   -0.0001   -0.0568    0.0025   -0.3466
          15   -0.0000    0.7470   -0.0003   -0.0003    0.1201    0.0002    0.0001   -0.0010


   Root No.       9

                 7 A'  

                2840.2
  
           1    0.0009
           2   -0.0001
           3   -0.0003
           4   -0.0007
           5    0.0001
           6   -0.0003
           7   -0.0205
           8   -0.0187
           9    0.0004
          10    0.2553
          11   -0.2866
          12    0.0000
          13    0.0694
          14    0.5826
          15    0.0015


           MASS-WEIGHTED COORDINATE ANALYSIS (NORMAL COORDINATES)


   Root No.       1         2         3         4         5         6         7         8

                 1 A'      1 A"      2 A'      3 A'      2 A"      4 A'      5 A'      6 A'  

                -101.9     103.5     185.4     246.4     260.6    1375.7    2022.5    2782.1
  
           1    0.0482   -0.0000   -0.1133   -0.0595   -0.0001    0.0138    0.7568    0.0113
           2    0.6310   -0.0003   -0.4190   -0.3117   -0.0004   -0.0060    0.0050   -0.0003
           3    0.0041    0.0565    0.0013    0.0043    0.1853   -0.0050    0.0000    0.0026
           4    0.0533   -0.0000   -0.1375   -0.0882    0.0000   -0.0146   -0.6530   -0.0094
           5   -0.0411   -0.0000    0.7400   -0.2643    0.0002   -0.0014    0.0003   -0.0016
           6   -0.0034    0.0426   -0.0009   -0.0043   -0.1931    0.0047   -0.0000   -0.0008
           7   -0.0453    0.0001    0.2273    0.1770    0.0002   -0.2784    0.0049   -0.1232
           8   -0.5578    0.0005   -0.3818    0.3410    0.0005   -0.1001   -0.0028    0.2408
           9    0.0000   -0.2704    0.0000    0.0010   -0.2361   -0.0011   -0.0000   -0.0008
          10    0.2265    0.0001    0.1605    0.3288   -0.0001    0.4550   -0.0263    0.6652
          11    0.2237    0.0003    0.0619    0.5293   -0.0010    0.5063   -0.0083   -0.4656
          12   -0.0008   -0.2215   -0.0006   -0.0012    0.9224    0.0026    0.0001   -0.0013
          13   -0.4244   -0.0003   -0.1273   -0.4771   -0.0003    0.6648   -0.0040   -0.1759
          14   -0.0157   -0.0013   -0.0424    0.2412   -0.0001   -0.0813    0.0011   -0.4862
          15   -0.0000    0.9343   -0.0003   -0.0004    0.1479    0.0003    0.0000   -0.0014


   Root No.       9

                 7 A'  

                2840.2
  
           1    0.0045
           2   -0.0006
           3   -0.0015
           4   -0.0038
           5    0.0005
           6   -0.0015
           7   -0.1149
           8   -0.1047
           9    0.0023
          10    0.3597
          11   -0.4038
          12    0.0000
          13    0.0977
          14    0.8209
          15    0.0022


          DESCRIPTION OF VIBRATIONS


 VIBRATION          1    1A'         ATOM PAIR     ENERGY CONTRIBUTION    RADIAL
 FREQUENCY          -101.93         O 3 -- H 4         +68.4% (-99.9%)      5.5%
 TRANSITION DIPOLE   1.0717         O 3 -- H 5         +30.4% (-99.9%)     38.4%
 TRAVEL (Ang.)       0.4323         C 1 -- O 2          +1.2% (-61.9%)      0.0%
 REDUCED MASS        3.5396
 EFFECTIVE MASS    144.0704
 FORCE CONSTANT     -0.0217

 VIBRATION          2    1A"         ATOM PAIR     ENERGY CONTRIBUTION    RADIAL
 FREQUENCY           103.46         O 3 -- H 5         +89.6% (108.5%)      0.1%
 TRANSITION DIPOLE   0.8284         O 3 -- H 4         +10.4% ( 37.0%)      0.0%
 TRAVEL (Ang.)       0.8726
 REDUCED MASS        0.8560
 EFFECTIVE MASS      1.6139
 FORCE CONSTANT      0.0054

 VIBRATION          3    2A'         ATOM PAIR     ENERGY CONTRIBUTION    RADIAL
 FREQUENCY           185.40         O 3 -- H 5         +55.1% (149.9%)     20.7%
 TRANSITION DIPOLE   0.1712         O 3 -- H 4         +31.5% (113.4%)     43.7%
 TRAVEL (Ang.)       0.2425         C 1 -- O 2         +13.4% ( 74.0%)      0.0%
 REDUCED MASS        6.1862
 EFFECTIVE MASS     45.1241
 FORCE CONSTANT      0.1253

 VIBRATION          4    3A'         ATOM PAIR     ENERGY CONTRIBUTION    RADIAL
 FREQUENCY           246.37         O 3 -- H 5         +50.0% (264.5%)     18.3%
 TRANSITION DIPOLE   0.7542         O 3 -- H 4         +49.8% (263.9%)      1.1%
 TRAVEL (Ang.)       0.5845         C 1 -- O 2          +0.2% ( 18.7%)     26.1%
 REDUCED MASS        0.8011
 EFFECTIVE MASS     13.7025
 FORCE CONSTANT      0.0286

 VIBRATION          5    2A"         ATOM PAIR     ENERGY CONTRIBUTION    RADIAL
 FREQUENCY           260.62         O 3 -- H 4         +97.8% ( 90.6%)      0.0%
 TRANSITION DIPOLE   1.2284         O 3 -- H 5          +1.4% ( 10.8%)      0.1%
 TRAVEL (Ang.)       0.5631         C 1 -- O 2          +0.8% (  8.1%)      0.0%
 REDUCED MASS        0.8161
 EFFECTIVE MASS      1.8865
 FORCE CONSTANT      0.0327

 VIBRATION          6    4A'         ATOM PAIR     ENERGY CONTRIBUTION    RADIAL
 FREQUENCY          1375.68         O 3 -- H 4         +50.9% ( 57.6%)      9.2%
 TRANSITION DIPOLE   0.7501         O 3 -- H 5         +48.9% ( 56.5%)      9.4%
 TRAVEL (Ang.)       0.3008         C 1 -- O 2          +0.1% (  2.9%)     87.6%
 REDUCED MASS        0.5418
 EFFECTIVE MASS      1.6870
 FORCE CONSTANT      0.6041

 VIBRATION          7    5A'         ATOM PAIR     ENERGY CONTRIBUTION    RADIAL
 FREQUENCY          2022.48         C 1 -- O 2         +99.9% (100.0%)    100.0%
 TRANSITION DIPOLE   4.6905
 TRAVEL (Ang.)       0.0698
 REDUCED MASS        6.8497
 EFFECTIVE MASS     13.6321
 FORCE CONSTANT     16.5078

 VIBRATION          8    6A'         ATOM PAIR     ENERGY CONTRIBUTION    RADIAL
 FREQUENCY          2782.10         O 3 -- H 4         +70.0% ( 84.8%)     97.5%
 TRANSITION DIPOLE   1.3439         O 3 -- H 5         +30.0% ( 55.4%)     95.2%
 TRAVEL (Ang.)       0.2017
 REDUCED MASS        0.5957
 EFFECTIVE MASS      1.5001
 FORCE CONSTANT      2.7168

 VIBRATION          9    7A'         ATOM PAIR     ENERGY CONTRIBUTION    RADIAL
 FREQUENCY          2840.18         O 3 -- H 5         +71.7% ( 82.2%)     99.4%
 TRANSITION DIPOLE   0.4708         O 3 -- H 4         +28.3% ( 51.6%)    100.0%
 TRAVEL (Ang.)       0.2048
 REDUCED MASS        0.5662
 EFFECTIVE MASS      1.1638
 FORCE CONSTANT      2.6911

           FORCE CONSTANT IN CARTESIAN COORDINATES (Millidynes/A)

    ATOM   CHEMICAL       X               Y               Z
   NUMBER   SYMBOL  FORCE CONSTANT  FORCE CONSTANT  FORCE CONSTANT

      1       C       16.594306        0.057281        0.021820
      2       O       16.463810        0.218097        0.030115
      3       O        3.528884        5.326071        0.039039
      4       H        2.892272        2.075381        0.034485
      5       H        0.692302        4.324000        0.006812

 **********************
 *                    *
 * JOB ENDED NORMALLY *
 *                    *
 **********************



 TOTAL JOB TIME:             0.05 SECONDS

 == MOPAC DONE ==
