 *******************************************************************************
 ** Site#:  999         For non-commercial use only           Version 21.129  **
 *******************************************************************************
 ** Cite this program as: MOPAC2016, Version: 21.129 , James J. P. Stewart,   **
 ** Stewart Computational Chemistry, web-site: HTTP://OpenMOPAC.net.          **
 *******************************************************************************
 **                                                                           **
 **                                MOPAC2016                                  **
 **                                                                           **
 *******************************************************************************

                              PM7 CALCULATION RESULTS

 *******************************************************************************
 *  CALCULATION DONE:                                Sun Nov 20 12:22:41 2022  *
 *  PM7        - The PM7 Hamiltonian to be used
 *
 *
 *
 *                 CHARGE ON SYSTEM = 0
 *
 *
 *
 *  PRECISE    - TIGHTER CRITERIA TO BE USED
 *  TS         - USE EF ROUTINE FOR TS SEARCH
 *  THREADS=1  - MULTI-THREADING NOT USED
 *  T=         - A TIME OF 500.0 SECONDS REQUESTED
 *  DUMP=N     - RESTART FILE WRITTEN EVERY 7200.0 SECONDS REQUESTED
 *  CYCLES=    - DO A MAXIMUM OF 1000 STEPS
 *  DDMAX=     - MAXIMUM TRUST RADIUS  0.200 ANG/RAD
 *  DENOUT     - SAVE DENSITY MATRIX FOR USE LATER
 *******************************************************************************
ts   pm7 threads=1 charge=0 precise cycles=1000 t=500 ddmax=0.2 denout
 title
 title
   ATOM   CHEMICAL          X               Y               Z
  NUMBER   SYMBOL      (ANGSTROMS)     (ANGSTROMS)     (ANGSTROMS)
 
     1       C         -0.84779000  *  -6.40671015  *   2.94063997  *
     2       O          1.36192000  *  -4.99235010  *   2.59454012  *
     3       O         -0.62914314  *  -6.01986580  *   3.99416329  *
     4       H          2.30055439  *  -4.94673741  *   2.43053686  *
     5       H          1.24608280  *  -4.79925921  *   3.52686660  *
 


          CARTESIAN COORDINATES 

    NO.       ATOM           X           Y           Z

     1         C         -0.8478     -6.4067      2.9406
     2         O          1.3619     -4.9924      2.5945
     3         O         -0.6291     -6.0199      3.9942
     4         H          2.3006     -4.9467      2.4305
     5         H          1.2461     -4.7993      3.5269

 General Reference for PM7:
 "Optimization of Parameters for Semiempirical Methods VI: More Modifications to the 
 NDDO Approximations and Re-optimization of Parameters", J. J. P. Stewart, J. Mol. Mod., 1:32, 19 (2013)
 https://link.springer.com/article/10.1007/s00894-012-1667-x

           Empirical Formula: C H2 O2  =     5 atoms



      MOLECULAR POINT GROUP   :   C1  


      RHF CALCULATION, NO. OF DOUBLY OCCUPIED LEVELS = 9


          Transition state refinement using EF

          HESSIAN CALCULATED NUMERICALLY

 CYCLE:     1 TIME:   0.004 TIME LEFT:  8.33M  GRAD.:     1.406 HEAT: -78.80925
 CYCLE:     2 TIME:   0.000 TIME LEFT:  8.33M  GRAD.:     4.003 HEAT: -78.76713
 CYCLE:     3 TIME:   0.004 TIME LEFT:  8.33M  GRAD.:     1.469 HEAT: -78.77196
 CYCLE:     4 TIME:   0.000 TIME LEFT:  8.33M  GRAD.:     6.174 HEAT: -78.73573
 CYCLE:     5 TIME:   0.000 TIME LEFT:  8.33M  GRAD.:     4.954 HEAT: -78.74225
 CYCLE:     6 TIME:   0.000 TIME LEFT:  8.33M  GRAD.:     2.193 HEAT: -78.74907
 CYCLE:     7 TIME:   0.000 TIME LEFT:  8.33M  GRAD.:     1.764 HEAT: -78.75112
 CYCLE:     8 TIME:   0.000 TIME LEFT:  8.33M  GRAD.:     0.851 HEAT: -78.75379
 CYCLE:     9 TIME:   0.000 TIME LEFT:  8.33M  GRAD.:     1.019 HEAT: -78.75381
 CYCLE:    10 TIME:   0.000 TIME LEFT:  8.33M  GRAD.:     0.251 HEAT: -78.75445
 CYCLE:    11 TIME:   0.004 TIME LEFT:  8.33M  GRAD.:     6.672 HEAT: -78.74640
 CYCLE:    12 TIME:   0.000 TIME LEFT:  8.33M  GRAD.:     4.091 HEAT: -78.74935
 CYCLE:    13 TIME:   0.000 TIME LEFT:  8.33M  GRAD.:     2.577 HEAT: -78.74858
 CYCLE:    14 TIME:   0.000 TIME LEFT:  8.33M  GRAD.:     2.685 HEAT: -78.75397
 CYCLE:    15 TIME:   0.000 TIME LEFT:  8.33M  GRAD.:     2.372 HEAT: -78.75451
 CYCLE:    16 TIME:   0.000 TIME LEFT:  8.33M  GRAD.:     0.658 HEAT: -78.75631
 CYCLE:    17 TIME:   0.004 TIME LEFT:  8.33M  GRAD.:     0.634 HEAT: -78.75679
 CYCLE:    18 TIME:   0.000 TIME LEFT:  8.33M  GRAD.:     1.746 HEAT: -78.75620
 CYCLE:    19 TIME:   0.000 TIME LEFT:  8.33M  GRAD.:     0.396 HEAT: -78.75731
 CYCLE:    20 TIME:   0.000 TIME LEFT:  8.33M  GRAD.:     0.147 HEAT: -78.75747
 CYCLE:    21 TIME:   0.000 TIME LEFT:  8.33M  GRAD.:     0.120 HEAT: -78.75759
 CYCLE:    22 TIME:   0.000 TIME LEFT:  8.33M  GRAD.:     0.492 HEAT: -78.75769
 CYCLE:    23 TIME:   0.000 TIME LEFT:  8.33M  GRAD.:     0.306 HEAT: -78.75760
 CYCLE:    24 TIME:   0.000 TIME LEFT:  8.33M  GRAD.:     0.137 HEAT: -78.75788
 CYCLE:    25 TIME:   0.004 TIME LEFT:  8.33M  GRAD.:     1.369 HEAT: -78.75754
 CYCLE:    26 TIME:   0.000 TIME LEFT:  8.33M  GRAD.:     0.244 HEAT: -78.75810
 CYCLE:    27 TIME:   0.000 TIME LEFT:  8.33M  GRAD.:     0.324 HEAT: -78.75785
 CYCLE:    28 TIME:   0.000 TIME LEFT:  8.33M  GRAD.:     0.618 HEAT: -78.75725
 CYCLE:    29 TIME:   0.000 TIME LEFT:  8.33M  GRAD.:     1.878 HEAT: -78.75713
 CYCLE:    30 TIME:   0.000 TIME LEFT:  8.33M  GRAD.:     0.434 HEAT: -78.75819
 CYCLE:    31 TIME:   0.000 TIME LEFT:  8.33M  GRAD.:     0.284 HEAT: -78.75849
 CYCLE:    32 TIME:   0.000 TIME LEFT:  8.33M  GRAD.:     1.767 HEAT: -78.75782
 CYCLE:    33 TIME:   0.000 TIME LEFT:  8.33M  GRAD.:     0.568 HEAT: -78.75893
 CYCLE:    34 TIME:   0.004 TIME LEFT:  8.33M  GRAD.:     0.405 HEAT: -78.75990
 CYCLE:    35 TIME:   0.000 TIME LEFT:  8.33M  GRAD.:     2.136 HEAT: -78.75916
 CYCLE:    36 TIME:   0.000 TIME LEFT:  8.33M  GRAD.:     1.495 HEAT: -78.75822
 CYCLE:    37 TIME:   0.000 TIME LEFT:  8.33M  GRAD.:     2.728 HEAT: -78.75519
 CYCLE:    38 TIME:   0.000 TIME LEFT:  8.33M  GRAD.:     0.673 HEAT: -78.75882
 CYCLE:    39 TIME:   0.000 TIME LEFT:  8.33M  GRAD.:     0.342 HEAT: -78.75890
 CYCLE:    40 TIME:   0.000 TIME LEFT:  8.33M  GRAD.:     1.238 HEAT: -78.75829
 CYCLE:    41 TIME:   0.000 TIME LEFT:  8.33M  GRAD.:     1.287 HEAT: -78.75791
 CYCLE:    42 TIME:   0.004 TIME LEFT:  8.33M  GRAD.:     2.966 HEAT: -78.75533
 CYCLE:    43 TIME:   0.000 TIME LEFT:  8.33M  GRAD.:     0.318 HEAT: -78.75882
 CYCLE:    44 TIME:   0.000 TIME LEFT:  8.33M  GRAD.:     0.213 HEAT: -78.75892
 CYCLE:    45 TIME:   0.000 TIME LEFT:  8.33M  GRAD.:     0.206 HEAT: -78.75894
 CYCLE:    46 TIME:   0.000 TIME LEFT:  8.33M  GRAD.:     0.376 HEAT: -78.75883
 CYCLE:    47 TIME:   0.000 TIME LEFT:  8.33M  GRAD.:     0.072 HEAT: -78.75898
 CYCLE:    48 TIME:   0.000 TIME LEFT:  8.33M  GRAD.:     0.021 HEAT: -78.75898

     GRADIENT =  0.02111 IS LESS THAN CUTOFF =  0.05000



 -------------------------------------------------------------------------------
 ts   pm7 threads=1 charge=0 precise cycles=1000 t=500 ddmax=0.2 denout
 title
 title


     GEOMETRY OPTIMISED USING EIGENVECTOR FOLLOWING (TS).     
     SCF FIELD WAS ACHIEVED                                   


                              PM7 CALCULATION
                                                       MOPAC2016 (Version: 21.129 )
                                                       Sun Nov 20 12:22:41 2022




          FINAL HEAT OF FORMATION =        -78.75898 KCAL/MOL =    -329.52759 KJ/MOL


          TOTAL ENERGY            =       -740.18292 EV
          ELECTRONIC ENERGY       =      -1516.02664 EV  POINT GROUP:     Cs  
          CORE-CORE REPULSION     =        775.84372 EV
          COSMO AREA              =         84.05 SQUARE ANGSTROMS
          COSMO VOLUME            =         64.41 CUBIC ANGSTROMS

          GRADIENT NORM           =          0.02111 = 0.00944 PER ATOM
          IONIZATION POTENTIAL    =         12.163117 EV
          HOMO LUMO ENERGIES (EV) =        -12.163  1.829
          NO. OF FILLED LEVELS    =          9
          MOLECULAR WEIGHT        =         46.0256

          MOLECULAR DIMENSIONS (Angstroms)

            Atom       Atom       Distance
            H     4    C     1     3.70907
            O     3    O     2     1.11229
            H     5    C     1     0.02421


          SCF CALCULATIONS        =         72
 
          WALL-CLOCK TIME         =          0.035 SECONDS
          COMPUTATION TIME        =          0.034 SECONDS




   ATOM   CHEMICAL          X               Y               Z
  NUMBER   SYMBOL      (ANGSTROMS)     (ANGSTROMS)     (ANGSTROMS)
 
     1       C         -0.91858762  *  -6.41787871  *   2.96439749  *
     2       O          1.44015109  *  -5.04710124  *   2.57548383  *
     3       O         -0.63057712  *  -6.00370676  *   3.99069964  *
     4       H          2.26624983  *  -4.58481779  *   2.46049969  *
     5       H          1.21880997  *  -4.96886469  *   3.50461529  *

                             CARTESIAN COORDINATES

   1    C       -0.918587624    -6.417878711     2.964397490
   2    O        1.440151089    -5.047101245     2.575483832
   3    O       -0.630577123    -6.003706761     3.990699637
   4    H        2.266249826    -4.584817795     2.460499692
   5    H        1.218809968    -4.968864692     3.504615288


           Empirical Formula: C H2 O2  =     5 atoms



      MOLECULAR POINT GROUP   :   Cs  


                  EIGENVALUES  
 -32.47610 -29.58403 -19.57886 -18.04470 -14.95886 -14.87319 -14.29205 -12.25387
 -12.16312   1.82939   1.86914   4.04166   5.77748   6.38651


              NET ATOMIC CHARGES AND DIPOLE CONTRIBUTIONS

  ATOM NO.   TYPE          CHARGE      No. of ELECS.   s-Pop       p-Pop       
    1          C           0.490077        3.5099     1.79202     1.71790
    2          O          -0.679757        6.6798     1.81013     4.86963
    3          O          -0.486473        6.4865     1.83377     4.65270
    4          H           0.334705        0.6653     0.66529
    5          H           0.341447        0.6586     0.65855
 DIPOLE           X         Y         Z       TOTAL
 POINT-CHG.     0.251    -0.120    -1.052     1.089
 HYBRID         0.643     0.770     1.644     1.926
 SUM            0.894     0.650     0.591     1.254


          ATOMIC ORBITAL ELECTRON POPULATIONS

     Atom    s        px        py        pz   
    1  C   1.79202   0.45384   0.48600   0.77806
    2  O   1.81013   1.55918   1.84906   1.46138
    3  O   1.83377   1.57480   1.56752   1.51039
    4  H   0.66529
    5  H   0.65855
 *******************************************************************************
 ** Site#:  999         For non-commercial use only           Version 21.129  **
 *******************************************************************************
 ** Cite this program as: MOPAC2016, Version: 21.129 , James J. P. Stewart,   **
 ** Stewart Computational Chemistry, web-site: HTTP://OpenMOPAC.net.          **
 *******************************************************************************
 **                                                                           **
 **                                MOPAC2016                                  **
 **                                                                           **
 *******************************************************************************

                              PM7 CALCULATION RESULTS

 *******************************************************************************
 *  CALCULATION DONE:                                Sun Nov 20 12:22:41 2022  *
 *  PM7        - The PM7 Hamiltonian to be used
 *
 *
 *
 *                 CHARGE ON SYSTEM = 0
 *
 *
 *
 *  OLDGEO     - PREVIOUS GEOMETRY TO BE USED
 *  FORCE      - FORCE CALCULATION SPECIFIED
 *  THREADS=1  - MULTI-THREADING NOT USED
 *  T=         - A TIME OF 172800.0 SECONDS REQUESTED
 *  DUMP=N     - RESTART FILE WRITTEN EVERY 7200.0 SECONDS REQUESTED
 *  OLDENS     - INITIAL DENSITY MATRIX READ OFF DISK
 *******************************************************************************
  pm7 threads=1 charge=0 oldgeo oldens force
 title
 freq calc
   ATOM   CHEMICAL          X               Y               Z
  NUMBER   SYMBOL      (ANGSTROMS)     (ANGSTROMS)     (ANGSTROMS)
 
     1       C         -0.91858762  *  -6.41787871  *   2.96439749  *
     2       O          1.44015109  *  -5.04710124  *   2.57548383  *
     3       O         -0.63057712  *  -6.00370676  *   3.99069964  *
     4       H          2.26624983  *  -4.58481779  *   2.46049969  *
     5       H          1.21880997  *  -4.96886469  *   3.50461529  *
 


          CARTESIAN COORDINATES 

    NO.       ATOM           X           Y           Z

     1         C         -0.9186     -6.4179      2.9644
     2         O          1.4402     -5.0471      2.5755
     3         O         -0.6306     -6.0037      3.9907
     4         H          2.2662     -4.5848      2.4605
     5         H          1.2188     -4.9689      3.5046

 General Reference for PM7:
 "Optimization of Parameters for Semiempirical Methods VI: More Modifications to the 
 NDDO Approximations and Re-optimization of Parameters", J. J. P. Stewart, J. Mol. Mod., 1:32, 19 (2013)
 https://link.springer.com/article/10.1007/s00894-012-1667-x

           Empirical Formula: C H2 O2  =     5 atoms



      MOLECULAR POINT GROUP   :   Cs  


      RHF CALCULATION, NO. OF DOUBLY OCCUPIED LEVELS = 9



          HEAT OF FORMATION =     -78.758984 KCALS/MOLE


          CARTESIAN COORDINATE DERIVATIVES

   NUMBER  ATOM         X            Y            Z

     1       C      0.002480     0.007812     0.007502
     2       O     -0.006495     0.001413    -0.005438
     3       O     -0.001321    -0.007966    -0.007487
     4       H     -0.003036     0.007450     0.001948
     5       H      0.008394    -0.008737     0.003498
 


          GRADIENT NORM =   0.02337

          MOLECULAR WEIGHT =   46.03



          ROTATIONAL CONSTANTS IN CM(-1)

          A =    1.75030081   B =    0.21104732   C =    0.18833934



           PRINCIPAL MOMENTS OF INERTIA IN UNITS OF 10**(-40)*GRAM-CM**2

          A =       15.9931   B =      132.6374   C =      148.6295


          ORIENTATION OF MOLECULE IN FORCE CALCULATION

    NO.       ATOM         X         Y         Z

     1          C      -1.2003   -0.4033   -0.0004
     2          O       1.5554   -0.4033   -0.0004
     3          O      -0.8926    0.6981   -0.0004
     4          H       2.5087   -0.3869    0.0185
     5          H       1.2737    0.5127   -0.0018


    FIRST DERIVATIVES WILL BE USED IN THE CALCULATION OF SECOND DERIVATIVES

          ESTIMATED TIME TO COMPLETE CALCULATION =        0.00 SECONDS

    FOR POINT-GROUP Cs   THERE ARE   2 UNIQUE SYMMETRY FUNCTIONS.

 STEP:   1 TIME =     0.00 SECS, INTEGRAL =      0.00 TIME LEFT: 172800.00
 STEP:   2 TIME =     0.00 SECS, INTEGRAL =      0.00 TIME LEFT: 172800.00
 STEP:   3 TIME =     0.00 SECS, INTEGRAL =      0.00 TIME LEFT: 172800.00
 STEP:   4 TIME =     0.00 SECS, INTEGRAL =      0.00 TIME LEFT: 172800.00
 STEP:   5 TIME =     0.00 SECS, INTEGRAL =      0.00 TIME LEFT: 172800.00
 STEP:   6 TIME =     0.00 SECS, INTEGRAL =      0.01 TIME LEFT: 172799.99
 STEP:   7 TIME =     0.00 SECS, INTEGRAL =      0.01 TIME LEFT: 172799.99
 STEP:   8 TIME =     0.00 SECS, INTEGRAL =      0.01 TIME LEFT: 172799.99
 STEP:   9 TIME =     0.00 SECS, INTEGRAL =      0.01 TIME LEFT: 172799.99
 STEP:  10 TIME =     0.00 SECS, INTEGRAL =      0.01 TIME LEFT: 172799.99
 STEP:  11 TIME =     0.00 SECS, INTEGRAL =      0.01 TIME LEFT: 172799.99
 STEP:  12 TIME =     0.00 SECS, INTEGRAL =      0.01 TIME LEFT: 172799.99
 STEP:  13 TIME =     0.00 SECS, INTEGRAL =      0.01 TIME LEFT: 172799.99
 STEP:  14 TIME =     0.00 SECS, INTEGRAL =      0.02 TIME LEFT: 172799.98
 STEP:  15 TIME =     0.00 SECS, INTEGRAL =      0.02 TIME LEFT: 172799.98

(To convert to Hartree/Bohr^2, multiply by (10^(-21) x N x a0^2)/(4.184 x 627.51) =  0.0642)


           FORCE MATRIX IN MILLIDYNES/ANGSTROM


                  C  1       O  2       O  3       H  4       H  5
 ------------------------------------------------------------------
     C    1  16.595374
     O    2   0.097804   6.477864
     O    3  16.515233   0.192309  16.465283
     H    4   0.031456   4.057208   0.029373   4.500058
     H    5   0.153903   4.003934   0.127397   0.819409   4.421576


          HEAT OF FORMATION =     -78.758984 KCALS/MOLE

          ZERO POINT ENERGY      13.945 KCAL/MOL

         NOTE: SYSTEM IS NOT A GROUND STATE, THEREFORE ZERO POINT
         ENERGY IS NOT MEANINGFULL. ZERO POINT ENERGY PRINTED
         DOES NOT INCLUDE THE  1 IMAGINARY FREQUENCIES


           NORMAL COORDINATE ANALYSIS (Total motion = 1 Angstrom)


   Root No.       1         2         3         4         5         6         7         8

                 1 A'      1 A"      2 A'      3 A'      2 A"      4 A'      5 A'      6 A'  

                -102.0      41.5     184.2     246.2     261.5    1376.0    2022.5    2782.1
  
           1    0.1671   -0.0000   -0.1694   -0.0645   -0.0000   -0.0004    0.1451    0.0006
           2   -0.0331    0.0000    0.0011    0.0054   -0.0000    0.0030    0.5064    0.0023
           3    0.0006    0.0141    0.0003    0.0004    0.0439   -0.0005    0.0000    0.0003
           4   -0.1272    0.0001   -0.1056    0.0665    0.0000   -0.0300   -0.0008    0.0354
           5    0.0243    0.0000    0.1100    0.0140    0.0000   -0.0422    0.0033   -0.0331
           6    0.0000   -0.0559    0.0000    0.0001   -0.0476   -0.0001   -0.0000   -0.0001
           7   -0.0067   -0.0000    0.2304   -0.0493    0.0000   -0.0009   -0.1058   -0.0007
           8    0.0149   -0.0000   -0.1130   -0.0024   -0.0000   -0.0024   -0.3793   -0.0016
           9   -0.0004    0.0079   -0.0002   -0.0004   -0.0400    0.0004   -0.0000   -0.0001
          10   -0.1199   -0.0006   -0.1035    0.0727   -0.0001    0.0707   -0.0002   -0.3629
          11   -0.3724   -0.0000   -0.1540   -0.3709   -0.0001    0.4620   -0.0099   -0.0280
          12   -0.0000    0.7581   -0.0002   -0.0001    0.1061    0.0002    0.0000   -0.0005
          13    0.2543    0.0001    0.1419    0.4227   -0.0005    0.4261   -0.0362   -0.1936
          14    0.1446    0.0000    0.1884    0.1226   -0.0000    0.2101   -0.0554    0.5505
          15   -0.0003   -0.1641   -0.0004   -0.0004    0.7623    0.0010    0.0001   -0.0004


   Root No.       9

                 7 A'  

                2840.7
  
           1    0.0001
           2    0.0009
           3   -0.0002
           4   -0.0239
           5   -0.0144
           6    0.0002
           7   -0.0001
           8   -0.0007
           9   -0.0001
          10    0.5842
          11   -0.0906
          12    0.0008
          13   -0.2054
          14    0.3188
          15    0.0000


           MASS-WEIGHTED COORDINATE ANALYSIS (NORMAL COORDINATES)


   Root No.       1         2         3         4         5         6         7         8

                 1 A'      1 A"      2 A'      3 A'      2 A"      4 A'      5 A'      6 A'  

                -102.0      41.5     184.2     246.2     261.5    1376.0    2022.5    2782.1
  
           1    0.6238   -0.0001   -0.4304   -0.3153   -0.0002   -0.0022    0.2084    0.0027
           2   -0.1237    0.0000    0.0027    0.0266   -0.0000    0.0149    0.7276    0.0110
           3    0.0021    0.0601    0.0007    0.0022    0.1843   -0.0027    0.0000    0.0012
           4   -0.5481    0.0003   -0.3097    0.3751    0.0002   -0.1715   -0.0013    0.1973
           5    0.1049    0.0000    0.3226    0.0788    0.0000   -0.2410    0.0054   -0.1845
           6    0.0000   -0.2752    0.0000    0.0005   -0.2307   -0.0006   -0.0000   -0.0004
           7   -0.0288   -0.0000    0.6755   -0.2781    0.0001   -0.0053   -0.1755   -0.0041
           8    0.0641   -0.0000   -0.3313   -0.0136   -0.0000   -0.0137   -0.6290   -0.0087
           9   -0.0017    0.0388   -0.0005   -0.0022   -0.1939    0.0025   -0.0000   -0.0003
          10   -0.1297   -0.0007   -0.0761    0.1029   -0.0001    0.1013   -0.0001   -0.5080
          11   -0.4028   -0.0000   -0.1133   -0.5254   -0.0001    0.6620   -0.0041   -0.0392
          12   -0.0000    0.9370   -0.0001   -0.0002    0.1290    0.0002    0.0000   -0.0007
          13    0.2751    0.0001    0.1044    0.5989   -0.0006    0.6106   -0.0151   -0.2711
          14    0.1564    0.0000    0.1386    0.1737   -0.0000    0.3011   -0.0231    0.7706
          15   -0.0004   -0.2028   -0.0003   -0.0005    0.9266    0.0014    0.0000   -0.0006


   Root No.       9

                 7 A'  

                2840.7
  
           1    0.0006
           2    0.0044
           3   -0.0008
           4   -0.1338
           5   -0.0806
           6    0.0011
           7   -0.0005
           8   -0.0038
           9   -0.0007
          10    0.8215
          11   -0.1274
          12    0.0011
          13   -0.2888
          14    0.4483
          15    0.0001


          DESCRIPTION OF VIBRATIONS


 VIBRATION          1    1A'         ATOM PAIR     ENERGY CONTRIBUTION    RADIAL
 FREQUENCY          -101.97         O 2 -- H 5         +68.6% (-99.9%)      5.5%
 TRANSITION DIPOLE   1.0714         O 2 -- H 4         +30.3% (-99.9%)     38.8%
 TRAVEL (Ang.)       0.4310         C 1 -- O 3          +1.2% (-61.3%)      0.0%
 REDUCED MASS        3.5593
 EFFECTIVE MASS    142.9034
 FORCE CONSTANT     -0.0218

 VIBRATION          2    1A"         ATOM PAIR     ENERGY CONTRIBUTION    RADIAL
 FREQUENCY            41.51         O 2 -- H 4         +78.4% (151.5%)      0.0%
 TRANSITION DIPOLE   0.8537         O 2 -- H 5         +21.6% ( 79.4%)      0.0%
 TRAVEL (Ang.)       0.0000
 REDUCED MASS        0.8706
 EFFECTIVE MASS      3.0329
 FORCE CONSTANT      0.0009

 VIBRATION          3    2A'         ATOM PAIR     ENERGY CONTRIBUTION    RADIAL
 FREQUENCY           184.24         O 2 -- H 4         +55.0% (151.6%)     20.9%
 TRANSITION DIPOLE   0.1825         O 2 -- H 5         +32.0% (115.7%)     43.1%
 TRAVEL (Ang.)       0.2434         C 1 -- O 3         +13.0% ( 73.6%)      0.0%
 REDUCED MASS        6.1793
 EFFECTIVE MASS     45.9521
 FORCE CONSTANT      0.1236

 VIBRATION          4    3A'         ATOM PAIR     ENERGY CONTRIBUTION    RADIAL
 FREQUENCY           246.19         O 2 -- H 4         +50.0% (264.9%)     18.2%
 TRANSITION DIPOLE   0.7551         O 2 -- H 5         +49.7% (264.2%)      1.1%
 TRAVEL (Ang.)       0.5862         C 1 -- O 3          +0.2% ( 18.7%)     27.2%
 REDUCED MASS        0.7971
 EFFECTIVE MASS     13.6612
 FORCE CONSTANT      0.0285

 VIBRATION          5    2A"         ATOM PAIR     ENERGY CONTRIBUTION    RADIAL
 FREQUENCY           261.46         O 2 -- H 5         +98.6% ( 91.1%)      0.0%
 TRANSITION DIPOLE   1.2094         C 1 -- O 3          +0.8% (  8.0%)      0.0%
 TRAVEL (Ang.)       0.5591         O 2 -- H 4          +0.7% (  7.6%)      0.0%
 REDUCED MASS        0.8250
 EFFECTIVE MASS      1.8620
 FORCE CONSTANT      0.0332

 VIBRATION          6    4A'         ATOM PAIR     ENERGY CONTRIBUTION    RADIAL
 FREQUENCY          1375.97         O 2 -- H 5         +51.0% ( 57.6%)      9.2%
 TRANSITION DIPOLE   0.7502         O 2 -- H 4         +48.9% ( 56.4%)      9.3%
 TRAVEL (Ang.)       0.3008         C 1 -- O 3          +0.1% (  2.9%)     94.4%
 REDUCED MASS        0.5418
 EFFECTIVE MASS      1.6869
 FORCE CONSTANT      0.6043

 VIBRATION          7    5A'         ATOM PAIR     ENERGY CONTRIBUTION    RADIAL
 FREQUENCY          2022.48         C 1 -- O 3         +99.9% (100.0%)    100.0%
 TRANSITION DIPOLE   4.6898
 TRAVEL (Ang.)       0.0698
 REDUCED MASS        6.8497
 EFFECTIVE MASS     13.6321
 FORCE CONSTANT     16.5079

 VIBRATION          8    6A'         ATOM PAIR     ENERGY CONTRIBUTION    RADIAL
 FREQUENCY          2782.07         O 2 -- H 5         +70.8% ( 85.2%)     97.5%
 TRANSITION DIPOLE   1.3409         O 2 -- H 4         +29.1% ( 54.7%)     95.2%
 TRAVEL (Ang.)       0.2007
 REDUCED MASS        0.6018
 EFFECTIVE MASS      1.4989
 FORCE CONSTANT      2.7444

 VIBRATION          9    7A'         ATOM PAIR     ENERGY CONTRIBUTION    RADIAL
 FREQUENCY          2840.73         O 2 -- H 4         +72.6% ( 82.8%)     99.5%
 TRANSITION DIPOLE   0.4777         O 2 -- H 5         +27.4% ( 50.8%)    100.0%
 TRAVEL (Ang.)       0.2036
 REDUCED MASS        0.5725
 EFFECTIVE MASS      1.1654
 FORCE CONSTANT      2.7221

           FORCE CONSTANT IN CARTESIAN COORDINATES (Millidynes/A)

    ATOM   CHEMICAL       X               Y               Z
   NUMBER   SYMBOL  FORCE CONSTANT  FORCE CONSTANT  FORCE CONSTANT

      1       C        1.316813       15.332230        0.021095
      2       O        4.808721        4.052726        0.034966
      3       O        1.379577       15.299724        0.029458
      4       H        4.432173        0.586788        0.001612
      5       H        1.169775        3.796938        0.034833

 **********************
 *                    *
 * JOB ENDED NORMALLY *
 *                    *
 **********************



 TOTAL JOB TIME:             0.09 SECONDS

 == MOPAC DONE ==
