 *******************************************************************************
 ** Site#:  999         For non-commercial use only           Version 21.129  **
 *******************************************************************************
 ** Cite this program as: MOPAC2016, Version: 21.129 , James J. P. Stewart,   **
 ** Stewart Computational Chemistry, web-site: HTTP://OpenMOPAC.net.          **
 *******************************************************************************
 **                                                                           **
 **                                MOPAC2016                                  **
 **                                                                           **
 *******************************************************************************

                              PM7 CALCULATION RESULTS

 *******************************************************************************
 *  CALCULATION DONE:                                Sun Nov 20 12:22:42 2022  *
 *  PM7        - The PM7 Hamiltonian to be used
 *
 *
 *
 *                 CHARGE ON SYSTEM = 0
 *
 *
 *
 *  PRECISE    - TIGHTER CRITERIA TO BE USED
 *  TS         - USE EF ROUTINE FOR TS SEARCH
 *  THREADS=1  - MULTI-THREADING NOT USED
 *  T=         - A TIME OF 500.0 SECONDS REQUESTED
 *  DUMP=N     - RESTART FILE WRITTEN EVERY 7200.0 SECONDS REQUESTED
 *  CYCLES=    - DO A MAXIMUM OF 1000 STEPS
 *  DDMAX=     - MAXIMUM TRUST RADIUS  0.200 ANG/RAD
 *  DENOUT     - SAVE DENSITY MATRIX FOR USE LATER
 *******************************************************************************
ts   pm7 threads=1 charge=0 precise cycles=1000 t=500 ddmax=0.2 denout
 title
 title
   ATOM   CHEMICAL          X               Y               Z
  NUMBER   SYMBOL      (ANGSTROMS)     (ANGSTROMS)     (ANGSTROMS)
 
     1       C         -0.92874998  *   6.19259024  *  -2.69180012  *
     2       O          1.93420005  *   6.09468985  *  -2.44716001  *
     3       O         -0.62966521  *   6.24959980  *  -1.58914068  *
     4       H          2.84432561  *   6.10011248  *  -2.16309383  *
     5       H          1.40729024  *   6.16245973  *  -1.65183845  *
 


          CARTESIAN COORDINATES 

    NO.       ATOM           X           Y           Z

     1         C         -0.9287      6.1926     -2.6918
     2         O          1.9342      6.0947     -2.4472
     3         O         -0.6297      6.2496     -1.5891
     4         H          2.8443      6.1001     -2.1631
     5         H          1.4073      6.1625     -1.6518

 General Reference for PM7:
 "Optimization of Parameters for Semiempirical Methods VI: More Modifications to the 
 NDDO Approximations and Re-optimization of Parameters", J. J. P. Stewart, J. Mol. Mod., 1:32, 19 (2013)
 https://link.springer.com/article/10.1007/s00894-012-1667-x

           Empirical Formula: C H2 O2  =     5 atoms



      MOLECULAR POINT GROUP   :   Cs  


      RHF CALCULATION, NO. OF DOUBLY OCCUPIED LEVELS = 9


          Transition state refinement using EF

          HESSIAN CALCULATED NUMERICALLY

 CYCLE:     1 TIME:   0.008 TIME LEFT:  8.33M  GRAD.:     1.427 HEAT: -78.81939
 CYCLE:     2 TIME:   0.000 TIME LEFT:  8.33M  GRAD.:     3.536 HEAT: -78.79488
 CYCLE:     3 TIME:   0.000 TIME LEFT:  8.33M  GRAD.:     2.230 HEAT: -78.78473
 CYCLE:     4 TIME:   0.000 TIME LEFT:  8.33M  GRAD.:     6.461 HEAT: -78.75209
 CYCLE:     5 TIME:   0.000 TIME LEFT:  8.33M  GRAD.:     6.918 HEAT: -78.74154
 CYCLE:     6 TIME:   0.004 TIME LEFT:  8.33M  GRAD.:    16.487 HEAT: -78.74836
 CYCLE:     7 TIME:   0.000 TIME LEFT:  8.33M  GRAD.:     3.013 HEAT: -78.76565
 CYCLE:     8 TIME:   0.000 TIME LEFT:  8.33M  GRAD.:     2.638 HEAT: -78.76614
 CYCLE:     9 TIME:   0.000 TIME LEFT:  8.33M  GRAD.:     1.764 HEAT: -78.76897
 CYCLE:    10 TIME:   0.000 TIME LEFT:  8.33M  GRAD.:     6.635 HEAT: -78.76920
 CYCLE:    11 TIME:   0.004 TIME LEFT:  8.33M  GRAD.:     6.070 HEAT: -78.77170
 CYCLE:    12 TIME:   0.000 TIME LEFT:  8.33M  GRAD.:     1.224 HEAT: -78.77533
 CYCLE:    13 TIME:   0.000 TIME LEFT:  8.33M  GRAD.:     0.853 HEAT: -78.77614
 CYCLE:    13 TIME:   0.000 TIME LEFT:  8.33M  GRAD.:     0.531 HEAT: -78.77642
 CYCLE:    13 TIME:   0.000 TIME LEFT:  8.33M  GRAD.:     0.527 HEAT: -78.77626
 CYCLE:    14 TIME:   0.000 TIME LEFT:  8.33M  GRAD.:     0.534 HEAT: -78.77572
 CYCLE:    15 TIME:   0.000 TIME LEFT:  8.33M  GRAD.:     0.428 HEAT: -78.77533
 CYCLE:    16 TIME:   0.000 TIME LEFT:  8.33M  GRAD.:     5.443 HEAT: -78.74007
 CYCLE:    17 TIME:   0.000 TIME LEFT:  8.33M  GRAD.:     9.076 HEAT: -78.73160
 CYCLE:    18 TIME:   0.004 TIME LEFT:  8.33M  GRAD.:     4.765 HEAT: -78.77272
 CYCLE:    19 TIME:   0.000 TIME LEFT:  8.33M  GRAD.:     6.527 HEAT: -78.76347
 CYCLE:    20 TIME:   0.000 TIME LEFT:  8.33M  GRAD.:     5.515 HEAT: -78.75786
 CYCLE:    21 TIME:   0.000 TIME LEFT:  8.33M  GRAD.:     0.842 HEAT: -78.76649
 CYCLE:    22 TIME:   0.000 TIME LEFT:  8.33M  GRAD.:     1.323 HEAT: -78.76931
 CYCLE:    23 TIME:   0.000 TIME LEFT:  8.33M  GRAD.:     2.113 HEAT: -78.77406
 CYCLE:    24 TIME:   0.004 TIME LEFT:  8.33M  GRAD.:     1.138 HEAT: -78.77506
 CYCLE:    25 TIME:   0.000 TIME LEFT:  8.33M  GRAD.:     1.351 HEAT: -78.77489
 CYCLE:    26 TIME:   0.000 TIME LEFT:  8.33M  GRAD.:     0.981 HEAT: -78.77185
 CYCLE:    26 TIME:   0.000 TIME LEFT:  8.33M  GRAD.:     0.704 HEAT: -78.77344
 CYCLE:    27 TIME:   0.000 TIME LEFT:  8.33M  GRAD.:     1.112 HEAT: -78.77654
 CYCLE:    28 TIME:   0.000 TIME LEFT:  8.33M  GRAD.:     1.955 HEAT: -78.77704
 CYCLE:    29 TIME:   0.000 TIME LEFT:  8.33M  GRAD.:     0.866 HEAT: -78.77524
 CYCLE:    29 TIME:   0.000 TIME LEFT:  8.33M  GRAD.:     0.831 HEAT: -78.77640
 CYCLE:    29 TIME:   0.000 TIME LEFT:  8.33M  GRAD.:     0.524 HEAT: -78.77704
 CYCLE:    30 TIME:   0.000 TIME LEFT:  8.33M  GRAD.:     1.187 HEAT: -78.77554
 CYCLE:    31 TIME:   0.004 TIME LEFT:  8.33M  GRAD.:     2.649 HEAT: -78.77160
 CYCLE:    32 TIME:   0.000 TIME LEFT:  8.33M  GRAD.:     2.831 HEAT: -78.75976
 CYCLE:    32 TIME:   0.000 TIME LEFT:  8.33M  GRAD.:     1.243 HEAT: -78.76472
 CYCLE:    32 TIME:   0.000 TIME LEFT:  8.33M  GRAD.:     1.106 HEAT: -78.77123
 CYCLE:    33 TIME:   0.000 TIME LEFT:  8.33M  GRAD.:     4.869 HEAT: -78.72948
 CYCLE:    34 TIME:   0.000 TIME LEFT:  8.33M  GRAD.:     1.988 HEAT: -78.72612
 CYCLE:    35 TIME:   0.000 TIME LEFT:  8.33M  GRAD.:     4.994 HEAT: -78.72968
 CYCLE:    36 TIME:   0.004 TIME LEFT:  8.33M  GRAD.:     5.186 HEAT: -78.73057
 CYCLE:    37 TIME:   0.000 TIME LEFT:  8.33M  GRAD.:     4.843 HEAT: -78.73992
 CYCLE:    38 TIME:   0.000 TIME LEFT:  8.33M  GRAD.:     2.749 HEAT: -78.74954
 CYCLE:    39 TIME:   0.000 TIME LEFT:  8.33M  GRAD.:     5.298 HEAT: -78.74150
 CYCLE:    40 TIME:   0.000 TIME LEFT:  8.33M  GRAD.:     1.262 HEAT: -78.75541
 CYCLE:    41 TIME:   0.000 TIME LEFT:  8.33M  GRAD.:     0.507 HEAT: -78.75715
 CYCLE:    42 TIME:   0.000 TIME LEFT:  8.33M  GRAD.:     0.778 HEAT: -78.75762
 CYCLE:    43 TIME:   0.000 TIME LEFT:  8.33M  GRAD.:     0.455 HEAT: -78.75787
 CYCLE:    44 TIME:   0.004 TIME LEFT:  8.33M  GRAD.:     0.657 HEAT: -78.75790
 CYCLE:    45 TIME:   0.000 TIME LEFT:  8.33M  GRAD.:     0.286 HEAT: -78.75809
 CYCLE:    46 TIME:   0.000 TIME LEFT:  8.33M  GRAD.:     0.588 HEAT: -78.75830
 CYCLE:    47 TIME:   0.000 TIME LEFT:  8.33M  GRAD.:     0.304 HEAT: -78.75854
 CYCLE:    48 TIME:   0.000 TIME LEFT:  8.33M  GRAD.:     1.953 HEAT: -78.75732
 CYCLE:    49 TIME:   0.000 TIME LEFT:  8.33M  GRAD.:     0.250 HEAT: -78.75867
 CYCLE:    50 TIME:   0.000 TIME LEFT:  8.33M  GRAD.:     0.134 HEAT: -78.75871
 CYCLE:    51 TIME:   0.000 TIME LEFT:  8.33M  GRAD.:     0.147 HEAT: -78.75879
 CYCLE:    52 TIME:   0.000 TIME LEFT:  8.33M  GRAD.:     0.150 HEAT: -78.75884
 CYCLE:    53 TIME:   0.004 TIME LEFT:  8.33M  GRAD.:     0.389 HEAT: -78.75888
 CYCLE:    54 TIME:   0.000 TIME LEFT:  8.33M  GRAD.:     0.115 HEAT: -78.75891
 CYCLE:    55 TIME:   0.000 TIME LEFT:  8.33M  GRAD.:     2.823 HEAT: -78.75562
 CYCLE:    56 TIME:   0.000 TIME LEFT:  8.33M  GRAD.:     1.954 HEAT: -78.75706
 CYCLE:    57 TIME:   0.000 TIME LEFT:  8.33M  GRAD.:     1.989 HEAT: -78.75749
 CYCLE:    58 TIME:   0.000 TIME LEFT:  8.33M  GRAD.:     1.612 HEAT: -78.75879
 CYCLE:    59 TIME:   0.000 TIME LEFT:  8.33M  GRAD.:     1.949 HEAT: -78.75937
 CYCLE:    60 TIME:   0.000 TIME LEFT:  8.33M  GRAD.:     1.420 HEAT: -78.76358
 CYCLE:    61 TIME:   0.004 TIME LEFT:  8.33M  GRAD.:     0.971 HEAT: -78.76194
 CYCLE:    62 TIME:   0.000 TIME LEFT:  8.33M  GRAD.:     2.940 HEAT: -78.75711
 CYCLE:    62 TIME:   0.000 TIME LEFT:  8.33M  GRAD.:     1.436 HEAT: -78.75965
 CYCLE:    63 TIME:   0.000 TIME LEFT:  8.33M  GRAD.:     1.576 HEAT: -78.75995
 CYCLE:    64 TIME:   0.000 TIME LEFT:  8.33M  GRAD.:    12.971 HEAT: -78.74624
 CYCLE:    65 TIME:   0.000 TIME LEFT:  8.33M  GRAD.:     3.604 HEAT: -78.75436
 CYCLE:    66 TIME:   0.000 TIME LEFT:  8.33M  GRAD.:     1.726 HEAT: -78.76401
 CYCLE:    67 TIME:   0.004 TIME LEFT:  8.33M  GRAD.:     3.862 HEAT: -78.75562
 CYCLE:    68 TIME:   0.000 TIME LEFT:  8.33M  GRAD.:     1.974 HEAT: -78.76025
 CYCLE:    69 TIME:   0.000 TIME LEFT:  8.33M  GRAD.:     3.098 HEAT: -78.76208
 CYCLE:    70 TIME:   0.000 TIME LEFT:  8.33M  GRAD.:     1.845 HEAT: -78.75932
 CYCLE:    71 TIME:   0.000 TIME LEFT:  8.33M  GRAD.:     3.912 HEAT: -78.75760
 CYCLE:    72 TIME:   0.000 TIME LEFT:  8.33M  GRAD.:     1.249 HEAT: -78.75867
 CYCLE:    73 TIME:   0.000 TIME LEFT:  8.33M  GRAD.:     1.296 HEAT: -78.75836
 CYCLE:    74 TIME:   0.000 TIME LEFT:  8.33M  GRAD.:     0.696 HEAT: -78.75876
 CYCLE:    75 TIME:   0.004 TIME LEFT:  8.33M  GRAD.:     2.165 HEAT: -78.75666
 CYCLE:    76 TIME:   0.000 TIME LEFT:  8.33M  GRAD.:     1.566 HEAT: -78.75794
 CYCLE:    77 TIME:   0.000 TIME LEFT:  8.33M  GRAD.:     4.616 HEAT: -78.75644
 CYCLE:    78 TIME:   0.000 TIME LEFT:  8.33M  GRAD.:     2.651 HEAT: -78.75790
 CYCLE:    79 TIME:   0.000 TIME LEFT:  8.33M  GRAD.:     2.706 HEAT: -78.76242
 CYCLE:    80 TIME:   0.004 TIME LEFT:  8.33M  GRAD.:     6.203 HEAT: -78.75545
 CYCLE:    81 TIME:   0.000 TIME LEFT:  8.33M  GRAD.:     1.250 HEAT: -78.75855
 CYCLE:    82 TIME:   0.000 TIME LEFT:  8.33M  GRAD.:     0.515 HEAT: -78.75878
 CYCLE:    83 TIME:   0.000 TIME LEFT:  8.33M  GRAD.:     0.237 HEAT: -78.75878
 CYCLE:    84 TIME:   0.000 TIME LEFT:  8.33M  GRAD.:     0.150 HEAT: -78.75866
 CYCLE:    85 TIME:   0.000 TIME LEFT:  8.33M  GRAD.:     5.786 HEAT: -78.74997
 CYCLE:    86 TIME:   0.000 TIME LEFT:  8.33M  GRAD.:     0.271 HEAT: -78.75860
 CYCLE:    87 TIME:   0.000 TIME LEFT:  8.33M  GRAD.:     0.239 HEAT: -78.75864
 CYCLE:    88 TIME:   0.000 TIME LEFT:  8.33M  GRAD.:     1.978 HEAT: -78.75729
 CYCLE:    89 TIME:   0.000 TIME LEFT:  8.33M  GRAD.:     0.282 HEAT: -78.75874
 CYCLE:    90 TIME:   0.004 TIME LEFT:  8.33M  GRAD.:     0.112 HEAT: -78.75879
 CYCLE:    91 TIME:   0.000 TIME LEFT:  8.33M  GRAD.:     0.040 HEAT: -78.75881

     GRADIENT =  0.04027 IS LESS THAN CUTOFF =  0.05000



 -------------------------------------------------------------------------------
 ts   pm7 threads=1 charge=0 precise cycles=1000 t=500 ddmax=0.2 denout
 title
 title


     GEOMETRY OPTIMISED USING EIGENVECTOR FOLLOWING (TS).     
     SCF FIELD WAS ACHIEVED                                   


                              PM7 CALCULATION
                                                       MOPAC2016 (Version: 21.129 )
                                                       Sun Nov 20 12:22:42 2022




          FINAL HEAT OF FORMATION =        -78.75881 KCAL/MOL =    -329.52685 KJ/MOL


          TOTAL ENERGY            =       -740.18297 EV
          ELECTRONIC ENERGY       =      -1516.07987 EV  POINT GROUP:     Cs  
          CORE-CORE REPULSION     =        775.89690 EV
          COSMO AREA              =         84.21 SQUARE ANGSTROMS
          COSMO VOLUME            =         63.69 CUBIC ANGSTROMS

          GRADIENT NORM           =          0.04027 = 0.01801 PER ATOM
          IONIZATION POTENTIAL    =         12.162926 EV
          HOMO LUMO ENERGIES (EV) =        -12.163  1.829
          NO. OF FILLED LEVELS    =          9
          MOLECULAR WEIGHT        =         46.0256

          MOLECULAR DIMENSIONS (Angstroms)

            Atom       Atom       Distance
            H     4    C     1     3.70637
            O     3    O     2     1.11295
            C     1    H     5     0.08992


          SCF CALCULATIONS        =        133
 
          WALL-CLOCK TIME         =          0.059 SECONDS
          COMPUTATION TIME        =          0.060 SECONDS




   ATOM   CHEMICAL          X               Y               Z
  NUMBER   SYMBOL      (ANGSTROMS)     (ANGSTROMS)     (ANGSTROMS)
 
     1       C         -0.85678333  *   6.19091052  *  -2.70817186  *
     2       O          1.88170824  *   6.09040156  *  -2.42684134  *
     3       O         -0.66147184  *   6.25127808  *  -1.58299690  *
     4       H          2.82844535  *   6.12547597  *  -2.31833353  *
     5       H          1.51059921  *   6.15329360  *  -1.54551435  *

                             CARTESIAN COORDINATES

   1    C       -0.856783328     6.190910520    -2.708171860
   2    O        1.881708243     6.090401558    -2.426841337
   3    O       -0.661471837     6.251278076    -1.582996902
   4    H        2.828445349     6.125475967    -2.318333526
   5    H        1.510599214     6.153293597    -1.545514349


           Empirical Formula: C H2 O2  =     5 atoms



      MOLECULAR POINT GROUP   :   Cs  


                  EIGENVALUES  
 -32.47574 -29.58491 -19.57877 -18.04521 -14.95871 -14.87336 -14.29259 -12.25460
 -12.16293   1.82940   1.86925   4.04119   5.77747   6.38589


              NET ATOMIC CHARGES AND DIPOLE CONTRIBUTIONS

  ATOM NO.   TYPE          CHARGE      No. of ELECS.   s-Pop       p-Pop       
    1          C           0.490108        3.5099     1.79203     1.71786
    2          O          -0.679737        6.6797     1.81013     4.86961
    3          O          -0.486515        6.4865     1.83378     4.65274
    4          H           0.334700        0.6653     0.66530
    5          H           0.341445        0.6586     0.65856
 DIPOLE           X         Y         Z       TOTAL
 POINT-CHG.     0.410     0.020    -1.014     1.094
 HYBRID         0.518     0.108     1.851     1.925
 SUM            0.927     0.128     0.837     1.256


          ATOMIC ORBITAL ELECTRON POPULATIONS

     Atom    s        px        py        pz   
    1  C   1.79203   0.43557   0.42488   0.85742
    2  O   1.81013   1.39648   1.99620   1.47693
    3  O   1.83378   1.57818   1.57609   1.49848
    4  H   0.66530
    5  H   0.65856
 *******************************************************************************
 ** Site#:  999         For non-commercial use only           Version 21.129  **
 *******************************************************************************
 ** Cite this program as: MOPAC2016, Version: 21.129 , James J. P. Stewart,   **
 ** Stewart Computational Chemistry, web-site: HTTP://OpenMOPAC.net.          **
 *******************************************************************************
 **                                                                           **
 **                                MOPAC2016                                  **
 **                                                                           **
 *******************************************************************************

                              PM7 CALCULATION RESULTS

 *******************************************************************************
 *  CALCULATION DONE:                                Sun Nov 20 12:22:42 2022  *
 *  PM7        - The PM7 Hamiltonian to be used
 *
 *
 *
 *                 CHARGE ON SYSTEM = 0
 *
 *
 *
 *  OLDGEO     - PREVIOUS GEOMETRY TO BE USED
 *  FORCE      - FORCE CALCULATION SPECIFIED
 *  THREADS=1  - MULTI-THREADING NOT USED
 *  T=         - A TIME OF 172800.0 SECONDS REQUESTED
 *  DUMP=N     - RESTART FILE WRITTEN EVERY 7200.0 SECONDS REQUESTED
 *  OLDENS     - INITIAL DENSITY MATRIX READ OFF DISK
 *******************************************************************************
  pm7 threads=1 charge=0 oldgeo oldens force
 title
 freq calc
   ATOM   CHEMICAL          X               Y               Z
  NUMBER   SYMBOL      (ANGSTROMS)     (ANGSTROMS)     (ANGSTROMS)
 
     1       C         -0.85678333  *   6.19091052  *  -2.70817186  *
     2       O          1.88170824  *   6.09040156  *  -2.42684134  *
     3       O         -0.66147184  *   6.25127808  *  -1.58299690  *
     4       H          2.82844535  *   6.12547597  *  -2.31833353  *
     5       H          1.51059921  *   6.15329360  *  -1.54551435  *
 


          CARTESIAN COORDINATES 

    NO.       ATOM           X           Y           Z

     1         C         -0.8568      6.1909     -2.7082
     2         O          1.8817      6.0904     -2.4268
     3         O         -0.6615      6.2513     -1.5830
     4         H          2.8284      6.1255     -2.3183
     5         H          1.5106      6.1533     -1.5455

 General Reference for PM7:
 "Optimization of Parameters for Semiempirical Methods VI: More Modifications to the 
 NDDO Approximations and Re-optimization of Parameters", J. J. P. Stewart, J. Mol. Mod., 1:32, 19 (2013)
 https://link.springer.com/article/10.1007/s00894-012-1667-x

           Empirical Formula: C H2 O2  =     5 atoms



      MOLECULAR POINT GROUP   :   Cs  


      RHF CALCULATION, NO. OF DOUBLY OCCUPIED LEVELS = 9



          HEAT OF FORMATION =     -78.758808 KCALS/MOLE


          CARTESIAN COORDINATE DERIVATIVES

   NUMBER  ATOM         X            Y            Z

     1       C     -0.001942    -0.005797    -0.004389
     2       O      0.023584    -0.000243     0.010393
     3       O      0.000438     0.009735     0.003094
     4       H     -0.023760     0.007013    -0.004491
     5       H      0.001702    -0.010736    -0.004583
 


          GRADIENT NORM =   0.03998

          MOLECULAR WEIGHT =   46.03



          ROTATIONAL CONSTANTS IN CM(-1)

          A =    1.74937741   B =    0.21113430   C =    0.18841503



           PRINCIPAL MOMENTS OF INERTIA IN UNITS OF 10**(-40)*GRAM-CM**2

          A =       16.0016   B =      132.5828   C =      148.5698


          ORIENTATION OF MOLECULE IN FORCE CALCULATION

    NO.       ATOM         X         Y         Z

     1          C      -1.1996   -0.4034    0.0014
     2          O       1.5551   -0.4034    0.0014
     3          O      -0.8927    0.6983    0.0014
     4          H       2.5061   -0.3877   -0.0676
     5          H       1.2739    0.5128    0.0083


    FIRST DERIVATIVES WILL BE USED IN THE CALCULATION OF SECOND DERIVATIVES

          ESTIMATED TIME TO COMPLETE CALCULATION =        0.00 SECONDS

    FOR POINT-GROUP Cs   THERE ARE   2 UNIQUE SYMMETRY FUNCTIONS.

 STEP:   1 TIME =     0.00 SECS, INTEGRAL =      0.00 TIME LEFT: 172800.00
 STEP:   2 TIME =     0.00 SECS, INTEGRAL =      0.00 TIME LEFT: 172800.00
 STEP:   3 TIME =     0.00 SECS, INTEGRAL =      0.00 TIME LEFT: 172800.00
 STEP:   4 TIME =     0.00 SECS, INTEGRAL =      0.00 TIME LEFT: 172800.00
 STEP:   5 TIME =     0.00 SECS, INTEGRAL =      0.00 TIME LEFT: 172800.00
 STEP:   6 TIME =     0.00 SECS, INTEGRAL =      0.00 TIME LEFT: 172800.00
 STEP:   7 TIME =     0.00 SECS, INTEGRAL =      0.00 TIME LEFT: 172800.00
 STEP:   8 TIME =     0.00 SECS, INTEGRAL =      0.01 TIME LEFT: 172799.99
 STEP:   9 TIME =     0.00 SECS, INTEGRAL =      0.01 TIME LEFT: 172799.99
 STEP:  10 TIME =     0.00 SECS, INTEGRAL =      0.01 TIME LEFT: 172799.99
 STEP:  11 TIME =     0.00 SECS, INTEGRAL =      0.01 TIME LEFT: 172799.99
 STEP:  12 TIME =     0.00 SECS, INTEGRAL =      0.01 TIME LEFT: 172799.99
 STEP:  13 TIME =     0.00 SECS, INTEGRAL =      0.01 TIME LEFT: 172799.99
 STEP:  14 TIME =     0.00 SECS, INTEGRAL =      0.01 TIME LEFT: 172799.99
 STEP:  15 TIME =     0.00 SECS, INTEGRAL =      0.01 TIME LEFT: 172799.99

(To convert to Hartree/Bohr^2, multiply by (10^(-21) x N x a0^2)/(4.184 x 627.51) =  0.0642)


           FORCE MATRIX IN MILLIDYNES/ANGSTROM


                  C  1       O  2       O  3       H  4       H  5
 ------------------------------------------------------------------
     C    1  16.594446
     O    2   0.097914   6.477692
     O    3  16.514336   0.192095  16.464466
     H    4   0.031445   4.057419   0.029339   4.500319
     H    5   0.153953   4.003981   0.127341   0.819440   4.421576


          HEAT OF FORMATION =     -78.758808 KCALS/MOLE

          ZERO POINT ENERGY      14.160 KCAL/MOL

         NOTE: SYSTEM IS NOT A GROUND STATE, THEREFORE ZERO POINT
         ENERGY IS NOT MEANINGFULL. ZERO POINT ENERGY PRINTED
         DOES NOT INCLUDE THE  1 IMAGINARY FREQUENCIES


           NORMAL COORDINATE ANALYSIS (Total motion = 1 Angstrom)


   Root No.       1         2         3         4         5         6         7         8

                 1 A'      2 A'      1 A"      3 A'      2 A"      4 A'      5 A'      6 A'  

                -101.9     184.3     190.8     246.6     270.5    1374.2    2022.4    2780.1
  
           1    0.1673   -0.1697   -0.0002   -0.0646    0.0000   -0.0004    0.1447    0.0005
           2   -0.0331    0.0008   -0.0000    0.0054    0.0000    0.0030    0.5066    0.0022
           3   -0.0020   -0.0010    0.0101   -0.0017    0.0428    0.0019   -0.0000   -0.0010
           4   -0.1274   -0.1066   -0.0004    0.0661   -0.0001   -0.0300   -0.0008    0.0361
           5    0.0243    0.1104    0.0002    0.0142    0.0000   -0.0421    0.0033   -0.0321
           6   -0.0000    0.0003   -0.0498   -0.0003   -0.0495    0.0004    0.0000    0.0003
           7   -0.0066    0.2318    0.0005   -0.0488   -0.0001   -0.0009   -0.1055   -0.0007
           8    0.0148   -0.1134   -0.0002   -0.0026   -0.0000   -0.0024   -0.3795   -0.0015
           9    0.0015    0.0006    0.0105    0.0015   -0.0374   -0.0016    0.0000    0.0002
          10   -0.1204   -0.1047    0.0017    0.0720    0.0005    0.0713   -0.0002   -0.3858
          11   -0.3718   -0.1517    0.0000   -0.3709   -0.0005    0.4619   -0.0099   -0.0230
          12    0.0002   -0.0034    0.7162    0.0008    0.1587   -0.0005   -0.0001    0.0019
          13    0.2544    0.1396   -0.0007    0.4233    0.0025    0.4256   -0.0361   -0.1818
          14    0.1444    0.1883    0.0002    0.1229    0.0002    0.2093   -0.0553    0.5307
          15    0.0012    0.0023   -0.2133    0.0001    0.7115   -0.0034   -0.0003    0.0016


   Root No.       9

                 7 A'  

                2836.5
  
           1    0.0002
           2    0.0010
           3    0.0006
           4   -0.0221
           5   -0.0157
           6   -0.0007
           7   -0.0001
           8   -0.0007
           9    0.0005
          10    0.5622
          11   -0.0916
          12   -0.0028
          13   -0.2119
          14    0.3408
          15    0.0000


           MASS-WEIGHTED COORDINATE ANALYSIS (NORMAL COORDINATES)


   Root No.       1         2         3         4         5         6         7         8

                 1 A'      2 A'      1 A"      3 A'      2 A"      4 A'      5 A'      6 A'  

                -101.9     184.3     190.8     246.6     270.5    1374.2    2022.4    2780.1
  
           1    0.6242   -0.4292   -0.0007   -0.3163    0.0002   -0.0022    0.2079    0.0027
           2   -0.1234    0.0021   -0.0000    0.0265    0.0000    0.0149    0.7277    0.0108
           3   -0.0076   -0.0026    0.0450   -0.0083    0.1884    0.0095   -0.0000   -0.0048
           4   -0.5486   -0.3111   -0.0021    0.3733   -0.0004   -0.1716   -0.0014    0.2030
           5    0.1047    0.3223    0.0009    0.0800    0.0002   -0.2408    0.0054   -0.1809
           6   -0.0001    0.0008   -0.2560   -0.0016   -0.2518    0.0021    0.0000    0.0017
           7   -0.0286    0.6766    0.0024   -0.2754   -0.0007   -0.0053   -0.1750   -0.0041
           8    0.0639   -0.3309   -0.0010   -0.0147   -0.0000   -0.0137   -0.6291   -0.0085
           9    0.0063    0.0016    0.0541    0.0085   -0.1902   -0.0089    0.0001    0.0012
          10   -0.1301   -0.0767    0.0022    0.1021    0.0006    0.1022   -0.0001   -0.5449
          11   -0.4018   -0.1111    0.0000   -0.5258   -0.0007    0.6624   -0.0041   -0.0325
          12    0.0002   -0.0025    0.9240    0.0011    0.2025   -0.0007   -0.0000    0.0027
          13    0.2748    0.1023   -0.0009    0.6001    0.0032    0.6104   -0.0150   -0.2568
          14    0.1561    0.1379    0.0003    0.1742    0.0002    0.3002   -0.0230    0.7496
          15    0.0013    0.0017   -0.2751    0.0002    0.9077   -0.0049   -0.0001    0.0023


   Root No.       9

                 7 A'  

                2836.5
  
           1    0.0007
           2    0.0049
           3    0.0027
           4   -0.1247
           5   -0.0888
           6   -0.0042
           7   -0.0006
           8   -0.0041
           9    0.0028
          10    0.7973
          11   -0.1299
          12   -0.0040
          13   -0.3006
          14    0.4833
          15    0.0000


          DESCRIPTION OF VIBRATIONS


 VIBRATION          1    1A'         ATOM PAIR     ENERGY CONTRIBUTION    RADIAL
 FREQUENCY          -101.93         O 2 -- H 5         +68.6% (-99.9%)      5.4%
 TRANSITION DIPOLE   1.0717         O 2 -- H 4         +30.2% (-99.9%)     38.8%
 TRAVEL (Ang.)       0.4306         C 1 -- O 3          +1.2% (-61.4%)      0.0%
 REDUCED MASS        3.5683
 EFFECTIVE MASS    142.6567
 FORCE CONSTANT     -0.0218

 VIBRATION          2    2A'         ATOM PAIR     ENERGY CONTRIBUTION    RADIAL
 FREQUENCY           184.26         O 2 -- H 4         +54.9% (151.2%)     21.2%
 TRANSITION DIPOLE   0.1766         O 2 -- H 5         +32.1% (115.6%)     43.2%
 TRAVEL (Ang.)       0.2429         C 1 -- O 3         +13.0% ( 73.6%)      0.0%
 REDUCED MASS        6.2031
 EFFECTIVE MASS     46.0405
 FORCE CONSTANT      0.1241

 VIBRATION          3    1A"         ATOM PAIR     ENERGY CONTRIBUTION    RADIAL
 FREQUENCY           190.78         O 2 -- H 4         +92.2% ( 99.8%)      0.5%
 TRANSITION DIPOLE   0.7536         O 2 -- H 5          +7.8% ( 29.1%)      0.3%
 TRAVEL (Ang.)       0.6608
 REDUCED MASS        0.8094
 EFFECTIVE MASS      1.3871
 FORCE CONSTANT      0.0174

 VIBRATION          4    3A'         ATOM PAIR     ENERGY CONTRIBUTION    RADIAL
 FREQUENCY           246.58         O 2 -- H 4         +50.0% (264.3%)     17.9%
 TRANSITION DIPOLE   0.7549         O 2 -- H 5         +49.7% (263.5%)      0.9%
 TRAVEL (Ang.)       0.5879         C 1 -- O 3          +0.2% ( 18.6%)     22.6%
 REDUCED MASS        0.7913
 EFFECTIVE MASS     13.4538
 FORCE CONSTANT      0.0283

 VIBRATION          5    2A"         ATOM PAIR     ENERGY CONTRIBUTION    RADIAL
 FREQUENCY           270.52         O 2 -- H 5         +94.7% ( 90.0%)      0.0%
 TRANSITION DIPOLE   1.2799         O 2 -- H 4          +4.6% ( 19.9%)      0.5%
 TRAVEL (Ang.)       0.5630         C 1 -- O 3          +0.7% (  7.7%)      0.0%
 REDUCED MASS        0.7863
 EFFECTIVE MASS      1.9068
 FORCE CONSTANT      0.0339

 VIBRATION          6    4A'         ATOM PAIR     ENERGY CONTRIBUTION    RADIAL
 FREQUENCY          1374.23         O 2 -- H 5         +50.8% ( 57.5%)      9.2%
 TRANSITION DIPOLE   0.7519         O 2 -- H 4         +49.1% ( 56.5%)      9.3%
 TRAVEL (Ang.)       0.3010         C 1 -- O 3          +0.1% (  2.9%)     69.0%
 REDUCED MASS        0.5415
 EFFECTIVE MASS      1.6867
 FORCE CONSTANT      0.6026

 VIBRATION          7    5A'         ATOM PAIR     ENERGY CONTRIBUTION    RADIAL
 FREQUENCY          2022.43         C 1 -- O 3         +99.9% (100.0%)    100.0%
 TRANSITION DIPOLE   4.6898
 TRAVEL (Ang.)       0.0698
 REDUCED MASS        6.8497
 EFFECTIVE MASS     13.6321
 FORCE CONSTANT     16.5070

 VIBRATION          8    6A'         ATOM PAIR     ENERGY CONTRIBUTION    RADIAL
 FREQUENCY          2780.06         O 2 -- H 5         +66.8% ( 82.9%)     97.4%
 TRANSITION DIPOLE   1.3519         O 2 -- H 4         +33.2% ( 58.4%)     95.1%
 TRAVEL (Ang.)       0.2055
 REDUCED MASS        0.5742
 EFFECTIVE MASS      1.5054
 FORCE CONSTANT      2.6148

 VIBRATION          9    7A'         ATOM PAIR     ENERGY CONTRIBUTION    RADIAL
 FREQUENCY          2836.49         O 2 -- H 4         +68.3% ( 80.2%)     99.1%
 TRANSITION DIPOLE   0.4480         O 2 -- H 5         +31.7% ( 54.6%)    100.0%
 TRAVEL (Ang.)       0.2091
 REDUCED MASS        0.5438
 EFFECTIVE MASS      1.1589
 FORCE CONSTANT      2.5777

           FORCE CONSTANT IN CARTESIAN COORDINATES (Millidynes/A)

    ATOM   CHEMICAL       X               Y               Z
   NUMBER   SYMBOL  FORCE CONSTANT  FORCE CONSTANT  FORCE CONSTANT

      1       C        1.310333       15.337954        0.021468
      2       O        4.788160        4.053382        0.054320
      3       O        1.372850       15.305406        0.029291
      4       H        4.412843        0.587125        0.021604
      5       H        1.165459        3.798300        0.037608

 **********************
 *                    *
 * JOB ENDED NORMALLY *
 *                    *
 **********************



 TOTAL JOB TIME:             0.13 SECONDS

 == MOPAC DONE ==
