 *******************************************************************************
 ** Site#:  999         For non-commercial use only           Version 21.129  **
 *******************************************************************************
 ** Cite this program as: MOPAC2016, Version: 21.129 , James J. P. Stewart,   **
 ** Stewart Computational Chemistry, web-site: HTTP://OpenMOPAC.net.          **
 *******************************************************************************
 **                                                                           **
 **                                MOPAC2016                                  **
 **                                                                           **
 *******************************************************************************

                              PM7 CALCULATION RESULTS

 *******************************************************************************
 *  CALCULATION DONE:                                Sun Nov 20 12:22:49 2022  *
 *  PM7        - The PM7 Hamiltonian to be used
 *
 *
 *
 *                 CHARGE ON SYSTEM = 0
 *
 *
 *
 *  LET        - OVERRIDE SOME SAFETY CHECKS
 *  FORCE      - FORCE CALCULATION SPECIFIED
 *  THREADS=1  - MULTI-THREADING NOT USED
 *  T=         - A TIME OF 172800.0 SECONDS REQUESTED
 *  DUMP=N     - RESTART FILE WRITTEN EVERY 7200.0 SECONDS REQUESTED
 *  THERMO     - THERMODYNAMIC QUANTITIES TO BE CALCULATED
 *******************************************************************************
  pm7 threads=1 charge=0 force let thermo(298,298)
 title
 title
   ATOM   CHEMICAL          X               Y               Z
  NUMBER   SYMBOL      (ANGSTROMS)     (ANGSTROMS)     (ANGSTROMS)
 
     1       C          0.00000000  *   0.00000000  *   0.00000000  *
     2       O          1.19350230  *   0.00000000  *   0.00000000  *
     3       O         -0.67522604  *   1.19856960  *   0.00000000  *
     4       H         -0.67463551  *  -0.85103702  *  -0.08374709  *
     5       H         -1.14375093  *   1.42933113  *   0.81472089  *
 


          CARTESIAN COORDINATES 

    NO.       ATOM           X           Y           Z

     1         C          0.0000      0.0000      0.0000
     2         O          1.1935      0.0000      0.0000
     3         O         -0.6752      1.1986      0.0000
     4         H         -0.6746     -0.8510     -0.0837
     5         H         -1.1438      1.4293      0.8147

 General Reference for PM7:
 "Optimization of Parameters for Semiempirical Methods VI: More Modifications to the 
 NDDO Approximations and Re-optimization of Parameters", J. J. P. Stewart, J. Mol. Mod., 1:32, 19 (2013)
 https://link.springer.com/article/10.1007/s00894-012-1667-x

           Empirical Formula: C H2 O2  =     5 atoms



      MOLECULAR POINT GROUP   :   C1  


      RHF CALCULATION, NO. OF DOUBLY OCCUPIED LEVELS = 9



          HEAT OF FORMATION =     -78.100733 KCALS/MOLE


          CARTESIAN COORDINATE DERIVATIVES

   NUMBER  ATOM         X            Y            Z

     1       C     -0.006219     0.006525    -0.004492
     2       O      0.004353    -0.000671     0.004927
     3       O     -0.002305    -0.008109    -0.006545
     4       H      0.000331     0.000809    -0.000362
     5       H      0.003838     0.001446     0.006472
 


          GRADIENT NORM =   0.01785

          MOLECULAR WEIGHT =   46.03



          ROTATIONAL CONSTANTS IN CM(-1)

          A =    2.54763187   B =    0.39289896   C =    0.34903307



           PRINCIPAL MOMENTS OF INERTIA IN UNITS OF 10**(-40)*GRAM-CM**2

          A =       10.9878   B =       71.2468   C =       80.2009


          ORIENTATION OF MOLECULE IN FORCE CALCULATION

    NO.       ATOM         X         Y         Z

     1          C      -0.1403   -0.4293   -0.0160
     2          O       1.0532   -0.4293   -0.0160
     3          O      -0.8156    0.7693   -0.0160
     4          H      -0.8150   -1.2803   -0.0998
     5          H      -1.2841    1.0000    0.7987


    FIRST DERIVATIVES WILL BE USED IN THE CALCULATION OF SECOND DERIVATIVES

          ESTIMATED TIME TO COMPLETE CALCULATION =        0.00 SECONDS

    FOR POINT-GROUP C1   THERE ARE   1 UNIQUE SYMMETRY FUNCTIONS.

 STEP:   1 TIME =     0.00 SECS, INTEGRAL =      0.00 TIME LEFT: 172800.00
 STEP:   2 TIME =     0.00 SECS, INTEGRAL =      0.00 TIME LEFT: 172800.00
 STEP:   3 TIME =     0.00 SECS, INTEGRAL =      0.00 TIME LEFT: 172800.00
 STEP:   4 TIME =     0.00 SECS, INTEGRAL =      0.00 TIME LEFT: 172800.00
 STEP:   5 TIME =     0.00 SECS, INTEGRAL =      0.01 TIME LEFT: 172799.99
 STEP:   6 TIME =     0.00 SECS, INTEGRAL =      0.01 TIME LEFT: 172799.99
 STEP:   7 TIME =     0.00 SECS, INTEGRAL =      0.01 TIME LEFT: 172799.99
 STEP:   8 TIME =     0.00 SECS, INTEGRAL =      0.01 TIME LEFT: 172799.99
 STEP:   9 TIME =     0.00 SECS, INTEGRAL =      0.01 TIME LEFT: 172799.99
 STEP:  10 TIME =     0.00 SECS, INTEGRAL =      0.01 TIME LEFT: 172799.99
 STEP:  11 TIME =     0.00 SECS, INTEGRAL =      0.01 TIME LEFT: 172799.99
 STEP:  12 TIME =     0.00 SECS, INTEGRAL =      0.01 TIME LEFT: 172799.99
 STEP:  13 TIME =     0.00 SECS, INTEGRAL =      0.01 TIME LEFT: 172799.99
 STEP:  14 TIME =     0.00 SECS, INTEGRAL =      0.01 TIME LEFT: 172799.99
 STEP:  15 TIME =     0.00 SECS, INTEGRAL =      0.02 TIME LEFT: 172799.98

(To convert to Hartree/Bohr^2, multiply by (10^(-21) x N x a0^2)/(4.184 x 627.51) =  0.0642)


           FORCE MATRIX IN MILLIDYNES/ANGSTROM


                  C  1       O  2       O  3       H  4       H  5
 ------------------------------------------------------------------
     C    1  17.499569
     O    2  13.087156  14.859532
     O    3   4.374856   1.768343   7.978220
     H    4   3.222825   0.825799   0.688312   3.985899
     H    5   0.953814   0.204164   3.776952   0.113027   4.355184


          HEAT OF FORMATION =     -78.100733 KCALS/MOLE

          ZERO POINT ENERGY      17.329 KCAL/MOL

         NOTE: SYSTEM IS NOT A GROUND STATE, THEREFORE ZERO POINT
         ENERGY IS NOT MEANINGFULL. ZERO POINT ENERGY PRINTED
         DOES NOT INCLUDE THE  1 IMAGINARY FREQUENCIES


           NORMAL COORDINATE ANALYSIS (Total motion = 1 Angstrom)


   Root No.       1         2         3         4         5         6         7         8

                 1 A       2 A       3 A       4 A       5 A       6 A       7 A       8 A   

                -457.7     573.2     846.5    1033.7    1194.7    1217.9    1849.6    2640.8
  
           1    0.0078   -0.1026   -0.0033   -0.0034   -0.0417   -0.0230    0.3595   -0.0533
           2    0.0039   -0.1657   -0.0300    0.0687    0.1811    0.0260   -0.0250   -0.0502
           3   -0.0294   -0.0113   -0.0668   -0.1092    0.0483   -0.0120   -0.0022   -0.0047
           4    0.0057   -0.1071   -0.0049   -0.0042   -0.0577   -0.0206   -0.2732    0.0056
           5    0.0014    0.1714    0.0069   -0.0050   -0.0036   -0.0217   -0.0030   -0.0022
           6    0.0281    0.0066    0.0265    0.0247   -0.0060    0.0001   -0.0007   -0.0002
           7   -0.0488    0.1779   -0.0045    0.0169    0.0731    0.0021   -0.0087    0.0006
           8   -0.0269   -0.0467    0.0430   -0.0689   -0.1104    0.0218    0.0090   -0.0042
           9   -0.0113    0.0104   -0.0164    0.0435   -0.0358    0.0118    0.0061   -0.0017
          10   -0.0005   -0.0676    0.0245   -0.0785    0.0942    0.5935    0.1740    0.5480
          11    0.0218   -0.1571   -0.0885    0.0697    0.0486   -0.4604    0.2051    0.6989
          12   -0.1603   -0.0580    0.3824    0.4007   -0.0996   -0.0000    0.0222    0.0654
          13    0.5905    0.1661    0.1630   -0.0824    0.1585   -0.0268    0.0168   -0.0119
          14    0.3354    0.1514   -0.3470    0.2852   -0.3971    0.1479   -0.0021    0.0022
          15    0.2451   -0.0774    0.2530   -0.1816    0.1883   -0.0463   -0.0810    0.0224


   Root No.       9

                 9 A   

                2765.8
  
           1    0.0135
           2   -0.0046
           3   -0.0063
           4   -0.0051
           5    0.0009
           6    0.0002
           7    0.0257
           8   -0.0164
           9   -0.0401
          10   -0.0234
          11   -0.0081
          12   -0.0012
          13   -0.4659
          14    0.3098
          15    0.7100


           MASS-WEIGHTED COORDINATE ANALYSIS (NORMAL COORDINATES)


   Root No.       1         2         3         4         5         6         7         8

                 1 A       2 A       3 A       4 A       5 A       6 A       7 A       8 A   

                -457.7     573.2     846.5    1033.7    1194.7    1217.9    1849.6    2640.8
  
           1    0.0343   -0.2692   -0.0164   -0.0152   -0.1416   -0.1002    0.7396   -0.1985
           2    0.0170   -0.4347   -0.1499    0.3031    0.6158    0.1132   -0.0515   -0.1871
           3   -0.1288   -0.0295   -0.3345   -0.4821    0.1643   -0.0524   -0.0046   -0.0177
           4    0.0288   -0.3244   -0.0283   -0.0213   -0.2264   -0.1033   -0.6488    0.0240
           5    0.0073    0.5190    0.0401   -0.0255   -0.0142   -0.1088   -0.0071   -0.0096
           6    0.1417    0.0199    0.1532    0.1259   -0.0237    0.0006   -0.0017   -0.0010
           7   -0.2461    0.5388   -0.0257    0.0861    0.2866    0.0107   -0.0205    0.0028
           8   -0.1356   -0.1413    0.2483   -0.3511   -0.4332    0.1096    0.0213   -0.0182
           9   -0.0571    0.0315   -0.0946    0.2215   -0.1405    0.0595    0.0144   -0.0075
          10   -0.0007   -0.0514    0.0354   -0.1004    0.0928    0.7483    0.1037    0.5913
          11    0.0276   -0.1194   -0.1284    0.0891    0.0479   -0.5805    0.1222    0.7542
          12   -0.2031   -0.0441    0.5542    0.5124   -0.0981   -0.0000    0.0132    0.0706
          13    0.7482    0.1263    0.2363   -0.1054    0.1560   -0.0338    0.0100   -0.0128
          14    0.4249    0.1151   -0.5030    0.3648   -0.3911    0.1865   -0.0013    0.0024
          15    0.3105   -0.0589    0.3667   -0.2323    0.1854   -0.0584   -0.0483    0.0242


   Root No.       9

                 9 A   

                2765.8
  
           1    0.0504
           2   -0.0171
           3   -0.0236
           4   -0.0217
           5    0.0037
           6    0.0009
           7    0.1104
           8   -0.0704
           9   -0.1721
          10   -0.0253
          11   -0.0088
          12   -0.0013
          13   -0.5020
          14    0.3337
          15    0.7650


          DESCRIPTION OF VIBRATIONS


 VIBRATION          1    1A          ATOM PAIR     ENERGY CONTRIBUTION    RADIAL
 FREQUENCY          -457.74         O 3 -- H 5        -123.5% (-91.1%)      0.1%
 TRANSITION DIPOLE   0.9962         C 1 -- O 3         -10.0% (-25.9%)      0.0%
 TRAVEL (Ang.)       0.4222         C 1 -- O 2          -8.2% (-23.4%)      0.0%
 REDUCED MASS        0.8265         C 1 -- H 4          -5.4% (-19.0%)      5.3%
 EFFECTIVE MASS      1.1603
 FORCE CONSTANT     -0.1020

 VIBRATION          2    2A          ATOM PAIR     ENERGY CONTRIBUTION    RADIAL
 FREQUENCY           573.16         C 1 -- O 3         +36.3% (109.3%)      2.7%
 TRANSITION DIPOLE   0.9824         C 1 -- O 2         +28.5% ( 96.9%)      0.3%
 TRAVEL (Ang.)       0.1595         C 1 -- H 4         +24.7% ( 90.2%)     98.3%
 REDUCED MASS        4.6273         O 3 -- H 5         +10.5% ( 58.7%)     14.0%
 EFFECTIVE MASS     17.2369
 FORCE CONSTANT      0.8956

 VIBRATION          3    3A          ATOM PAIR     ENERGY CONTRIBUTION    RADIAL
 FREQUENCY           846.45         O 3 -- H 5         +42.6% ( 78.4%)      0.8%
 TRANSITION DIPOLE   0.7503         C 1 -- H 4         +37.3% ( 73.3%)      1.7%
 TRAVEL (Ang.)       0.3602         C 1 -- O 3         +12.2% ( 42.0%)     57.2%
 REDUCED MASS        0.6141         C 1 -- O 2          +7.8% ( 33.6%)      0.1%
 EFFECTIVE MASS      3.5859
 FORCE CONSTANT      0.2592

 VIBRATION          4    4A          ATOM PAIR     ENERGY CONTRIBUTION    RADIAL
 FREQUENCY          1033.66         C 1 -- H 4         +37.9% ( 69.5%)      2.0%
 TRANSITION DIPOLE   0.9179         C 1 -- O 3         +27.9% ( 59.6%)     41.2%
 TRAVEL (Ang.)       0.1850         O 3 -- H 5         +21.0% ( 51.8%)      1.9%
 REDUCED MASS        1.9057         C 1 -- O 2         +13.2% ( 41.1%)      0.0%
 EFFECTIVE MASS      6.4652
 FORCE CONSTANT      1.1997

 VIBRATION          5    5A          ATOM PAIR     ENERGY CONTRIBUTION    RADIAL
 FREQUENCY          1194.69         C 1 -- O 3         +43.7% ( 83.9%)     91.8%
 TRANSITION DIPOLE   1.8655         C 1 -- O 2         +19.3% ( 55.8%)      1.6%
 TRAVEL (Ang.)       0.1250         O 3 -- H 5         +19.0% ( 55.3%)     96.6%
 REDUCED MASS        3.6125         C 1 -- H 4         +18.0% ( 53.8%)     22.8%
 EFFECTIVE MASS     10.5637
 FORCE CONSTANT      3.0378

 VIBRATION          6    6A          ATOM PAIR     ENERGY CONTRIBUTION    RADIAL
 FREQUENCY          1217.90         C 1 -- H 4         +92.9% ( 94.2%)      0.0%
 TRANSITION DIPOLE   0.4956         O 3 -- H 5          +3.3% ( 17.8%)     16.2%
 TRAVEL (Ang.)       0.2579         C 1 -- O 3          +2.1% ( 14.1%)     13.3%
 REDUCED MASS        0.8323         C 1 -- O 2          +1.7% ( 12.6%)      0.0%
 EFFECTIVE MASS      1.4369
 FORCE CONSTANT      0.7273

 VIBRATION          7    7A          ATOM PAIR     ENERGY CONTRIBUTION    RADIAL
 FREQUENCY          1849.56         C 1 -- O 2         +58.3% ( 99.8%)     99.9%
 TRANSITION DIPOLE   4.3992         C 1 -- O 3         +21.1% ( 60.0%)     32.7%
 TRAVEL (Ang.)       0.0751         C 1 -- H 4         +20.3% ( 58.9%)     15.2%
 REDUCED MASS        6.4647         O 3 -- H 5          +0.3% (  7.5%)     99.0%
 EFFECTIVE MASS     13.4536
 FORCE CONSTANT     13.0298

 VIBRATION          8    8A          ATOM PAIR     ENERGY CONTRIBUTION    RADIAL
 FREQUENCY          2640.80         C 1 -- H 4         +96.3% ( 99.9%)     99.9%
 TRANSITION DIPOLE   0.3169         C 1 -- O 2          +1.9% ( 14.2%)     60.9%
 TRAVEL (Ang.)       0.1660         C 1 -- O 3          +1.7% ( 13.2%)      3.4%
 REDUCED MASS        0.9266
 EFFECTIVE MASS      1.5070
 FORCE CONSTANT      3.8072

 VIBRATION          9    9A          ATOM PAIR     ENERGY CONTRIBUTION    RADIAL
 FREQUENCY          2765.84         O 3 -- H 5         +99.3% ( 99.6%)     98.6%
 TRANSITION DIPOLE   1.4592         C 1 -- O 3          +0.4% (  6.3%)     20.2%
 TRAVEL (Ang.)       0.1609         C 1 -- H 4          +0.1% (  3.8%)     23.7%
 REDUCED MASS        0.9422         C 1 -- O 2          +0.1% (  3.7%)     83.5%
 EFFECTIVE MASS      1.3492
 FORCE CONSTANT      4.2465

      SYMMETRY NUMBER FOR POINT-GROUP C1  =  1


          SYSTEM IS A GROUND STATE


 title
 title


          MOLECULE IS NOT LINEAR

          THERE ARE  9 GENUINE VIBRATIONS IN THIS SYSTEM
          THIS THERMODYNAMICS CALCULATION IS LIMITED TO
          MOLECULES WHICH HAVE NO INTERNAL ROTATIONS




                    CALCULATED THERMODYNAMIC PROPERTIES
                                          *
   TEMP. (K)   PARTITION FUNCTION   H.O.F.    ENTHALPY  HEAT CAPACITY ENTROPY
                                   KCAL/MOL   CAL/MOLE    CAL/K/MOL  CAL/K/MOL


 298.00  VIB.     0.1235D+01                   353.9059     3.7733     1.6067
         ROT.     0.8939D+04                   888.2813     2.9808    21.0607
         INT.     0.1104D+05                  1242.1872     6.7541    22.6674
         TRA.     0.3019D+27                  1480.4688     4.9680    37.4027
         TOT.                      -78.101    2722.6560    11.7221    60.0701

   *: NOTE: HEATS OF FORMATION ARE RELATIVE TO THE
            ELEMENTS IN THEIR STANDARD STATE AT 298K
              (=  Standard Enthalpy of Formation).

            Hvib:  Zero-point energy is not included.
                   frequencies of less than zero cm-1 are not included.
            Hrot = (3/2)RT
            Htra = (3/2)RT + pV = (5/2)RT

            Heat capacity is Cp, not Cv

          For more information, see: HTTP://OpenMOPAC.net/Manual/thermochemistry.html


           FORCE CONSTANT IN CARTESIAN COORDINATES (Millidynes/A)

    ATOM   CHEMICAL       X               Y               Z
   NUMBER   SYMBOL  FORCE CONSTANT  FORCE CONSTANT  FORCE CONSTANT

      1       C       15.800646        7.019921        2.646854
      2       O       14.818075        1.029204        0.287652
      3       O        2.859659        4.770488        3.013928
      4       H        1.980914        2.699759        0.323379
      5       H        1.131741        0.838240        2.778086

 **********************
 *                    *
 * JOB ENDED NORMALLY *
 *                    *
 **********************



 TOTAL JOB TIME:             0.02 SECONDS

 == MOPAC DONE ==
