 *******************************************************************************
 ** Site#:  999         For non-commercial use only           Version 21.129  **
 *******************************************************************************
 ** Cite this program as: MOPAC2016, Version: 21.129 , James J. P. Stewart,   **
 ** Stewart Computational Chemistry, web-site: HTTP://OpenMOPAC.net.          **
 *******************************************************************************
 **                                                                           **
 **                                MOPAC2016                                  **
 **                                                                           **
 *******************************************************************************

                              PM7 CALCULATION RESULTS

 *******************************************************************************
 *  CALCULATION DONE:                                Sun Nov 20 12:22:49 2022  *
 *  PM7        - The PM7 Hamiltonian to be used
 *
 *
 *
 *                 CHARGE ON SYSTEM = 0
 *
 *
 *
 *  LET        - OVERRIDE SOME SAFETY CHECKS
 *  FORCE      - FORCE CALCULATION SPECIFIED
 *  THREADS=1  - MULTI-THREADING NOT USED
 *  T=         - A TIME OF 172800.0 SECONDS REQUESTED
 *  DUMP=N     - RESTART FILE WRITTEN EVERY 7200.0 SECONDS REQUESTED
 *  THERMO     - THERMODYNAMIC QUANTITIES TO BE CALCULATED
 *******************************************************************************
  pm7 threads=1 charge=0 force let thermo(298,298)
 title
 title
   ATOM   CHEMICAL          X               Y               Z
  NUMBER   SYMBOL      (ANGSTROMS)     (ANGSTROMS)     (ANGSTROMS)
 
     1       C          0.22103571  *   0.05985372  *   0.18394324  *
     2       O          0.62602277  *   0.19176629  *   1.26432062  *
     3       O          1.03765711  *  -0.08396921  *  -1.02887031  *
     4       H         -0.16712189  *   0.13828368  *  -1.19554681  *
     5       H          1.90759514  *   0.14101891  *  -1.35132387  *
 


          CARTESIAN COORDINATES 

    NO.       ATOM           X           Y           Z

     1         C          0.2210      0.0599      0.1839
     2         O          0.6260      0.1918      1.2643
     3         O          1.0377     -0.0840     -1.0289
     4         H         -0.1671      0.1383     -1.1955
     5         H          1.9076      0.1410     -1.3513

 General Reference for PM7:
 "Optimization of Parameters for Semiempirical Methods VI: More Modifications to the 
 NDDO Approximations and Re-optimization of Parameters", J. J. P. Stewart, J. Mol. Mod., 1:32, 19 (2013)
 https://link.springer.com/article/10.1007/s00894-012-1667-x

           Empirical Formula: C H2 O2  =     5 atoms



      MOLECULAR POINT GROUP   :   C1  


      RHF CALCULATION, NO. OF DOUBLY OCCUPIED LEVELS = 9



          HEAT OF FORMATION =     -35.710498 KCALS/MOLE


          CARTESIAN COORDINATE DERIVATIVES

   NUMBER  ATOM         X            Y            Z

     1       C     -0.002464     0.000692     0.000843
     2       O      0.000717    -0.001871    -0.000261
     3       O     -0.000999    -0.003415    -0.000218
     4       H      0.004265     0.001418    -0.001038
     5       H     -0.001519     0.003176     0.000673
 


          GRADIENT NORM =   0.00763

          MOLECULAR WEIGHT =   46.03



          ROTATIONAL CONSTANTS IN CM(-1)

          A =    3.26671416   B =    0.34840707   C =    0.31615836



           PRINCIPAL MOMENTS OF INERTIA IN UNITS OF 10**(-40)*GRAM-CM**2

          A =        8.5691   B =       80.3450   C =       88.5404


          ORIENTATION OF MOLECULE IN FORCE CALCULATION

    NO.       ATOM         X         Y         Z

     1          C      -0.0557   -0.4627   -0.0110
     2          O       1.1056   -0.4627   -0.0110
     3          O      -0.9156    0.7285   -0.0110
     4          H      -1.4655   -0.3515    0.2336
     5          H      -0.8866    1.6469    0.2481


    FIRST DERIVATIVES WILL BE USED IN THE CALCULATION OF SECOND DERIVATIVES

          ESTIMATED TIME TO COMPLETE CALCULATION =        0.00 SECONDS

    FOR POINT-GROUP C1   THERE ARE   1 UNIQUE SYMMETRY FUNCTIONS.

 STEP:   1 TIME =     0.00 SECS, INTEGRAL =      0.00 TIME LEFT: 172800.00
 STEP:   2 TIME =     0.00 SECS, INTEGRAL =      0.00 TIME LEFT: 172800.00
 STEP:   3 TIME =     0.00 SECS, INTEGRAL =      0.00 TIME LEFT: 172800.00
 STEP:   4 TIME =     0.00 SECS, INTEGRAL =      0.00 TIME LEFT: 172800.00
 STEP:   5 TIME =     0.00 SECS, INTEGRAL =      0.00 TIME LEFT: 172800.00
 STEP:   6 TIME =     0.00 SECS, INTEGRAL =      0.00 TIME LEFT: 172800.00
 STEP:   7 TIME =     0.00 SECS, INTEGRAL =      0.01 TIME LEFT: 172799.99
 STEP:   8 TIME =     0.00 SECS, INTEGRAL =      0.01 TIME LEFT: 172799.99
 STEP:   9 TIME =     0.00 SECS, INTEGRAL =      0.01 TIME LEFT: 172799.99
 STEP:  10 TIME =     0.00 SECS, INTEGRAL =      0.01 TIME LEFT: 172799.99
 STEP:  11 TIME =     0.00 SECS, INTEGRAL =      0.01 TIME LEFT: 172799.99
 STEP:  12 TIME =     0.00 SECS, INTEGRAL =      0.01 TIME LEFT: 172799.99
 STEP:  13 TIME =     0.00 SECS, INTEGRAL =      0.01 TIME LEFT: 172799.99
 STEP:  14 TIME =     0.00 SECS, INTEGRAL =      0.01 TIME LEFT: 172799.99
 STEP:  15 TIME =     0.00 SECS, INTEGRAL =      0.01 TIME LEFT: 172799.99

(To convert to Hartree/Bohr^2, multiply by (10^(-21) x N x a0^2)/(4.184 x 627.51) =  0.0642)


           FORCE MATRIX IN MILLIDYNES/ANGSTROM


                  C  1       O  2       O  3       H  4       H  5
 ------------------------------------------------------------------
     C    1  15.570184
     O    2  15.201331  16.130058
     O    3   2.141514   1.393232   6.174939
     H    4   2.685452   0.183133   2.407495   3.253423
     H    5   1.114185   0.204198   3.577304   0.429919   4.211076


          HEAT OF FORMATION =     -35.710498 KCALS/MOLE

          ZERO POINT ENERGY      14.026 KCAL/MOL

         NOTE: SYSTEM IS NOT A GROUND STATE, THEREFORE ZERO POINT
         ENERGY IS NOT MEANINGFULL. ZERO POINT ENERGY PRINTED
         DOES NOT INCLUDE THE  1 IMAGINARY FREQUENCIES


           NORMAL COORDINATE ANALYSIS (Total motion = 1 Angstrom)


   Root No.       1         2         3         4         5         6         7         8

                 1 A       2 A       3 A       4 A       5 A       6 A       7 A       8 A   

               -1588.0     204.9     438.0     461.2     727.7     979.3    1908.9    2367.7
  
           1    0.0447   -0.0068   -0.0672    0.0254   -0.0259    0.0235    0.2303   -0.0820
           2   -0.0434   -0.0744   -0.0367    0.0962    0.1686   -0.0129    0.0230    0.0144
           3   -0.0129   -0.0050   -0.0707   -0.1143    0.0518    0.0076    0.0044    0.0059
           4    0.0146   -0.0078   -0.0596    0.0298   -0.0136    0.0430   -0.1935    0.0336
           5    0.0038    0.0332    0.0909   -0.0625   -0.0196   -0.0101   -0.0018   -0.0010
           6    0.0013    0.0092    0.0276    0.0470   -0.0175   -0.0018    0.0005    0.0001
           7   -0.0172   -0.0095    0.0954   -0.0567    0.0322   -0.0898   -0.0109   -0.0132
           8   -0.0116    0.0301   -0.0706   -0.0143   -0.1016    0.0156   -0.0207   -0.0306
           9    0.0005   -0.0517    0.0342    0.0127   -0.0414    0.0164    0.0063    0.0088
          10   -0.3408    0.1348   -0.1011    0.1105   -0.2108   -0.1258    0.3703    0.6186
          11    0.6498   -0.0022    0.0816    0.0203    0.0663    0.0255    0.1271    0.4046
          12    0.0590    0.3014    0.1632    0.5486   -0.0458   -0.1926   -0.1185   -0.1793
          13   -0.1500    0.2203    0.3340    0.0138    0.2239    0.5886    0.1284    0.0341
          14   -0.0095   -0.1151    0.0326    0.0526   -0.1521    0.0417   -0.0442   -0.0747
          15    0.0666    0.4328   -0.3020   -0.1343    0.3622   -0.1283   -0.0409   -0.0314


   Root No.       9

                 9 A   

                2723.4
  
           1    0.0000
           2   -0.0114
           3    0.0017
           4   -0.0013
           5    0.0017
           6   -0.0006
           7   -0.0035
           8   -0.0463
           9   -0.0125
          10    0.0680
          11    0.0073
          12   -0.0283
          13    0.0081
          14    0.8363
          15    0.2176


           MASS-WEIGHTED COORDINATE ANALYSIS (NORMAL COORDINATES)


   Root No.       1         2         3         4         5         6         7         8

                 1 A       2 A       3 A       4 A       5 A       6 A       7 A       8 A   

               -1588.0     204.9     438.0     461.2     727.7     979.3    1908.9    2367.7
  
           1    0.1949   -0.0330   -0.2564    0.0995   -0.0967    0.1051    0.6650   -0.3368
           2   -0.1891   -0.3623   -0.1402    0.3769    0.6294   -0.0579    0.0663    0.0591
           3   -0.0561   -0.0245   -0.2697   -0.4479    0.1933    0.0338    0.0126    0.0243
           4    0.0733   -0.0438   -0.2625    0.1346   -0.0585    0.2221   -0.6447    0.1593
           5    0.0191    0.1865    0.4005   -0.2828   -0.0845   -0.0522   -0.0060   -0.0046
           6    0.0063    0.0516    0.1214    0.2125   -0.0752   -0.0093    0.0016    0.0003
           7   -0.0867   -0.0533    0.4201   -0.2563    0.1388   -0.4638   -0.0362   -0.0625
           8   -0.0581    0.1689   -0.3107   -0.0646   -0.4376    0.0806   -0.0689   -0.1451
           9    0.0025   -0.2903    0.1507    0.0576   -0.1782    0.0845    0.0210    0.0416
          10   -0.4302    0.1901   -0.1117    0.1254   -0.2279   -0.1631    0.3097    0.7362
          11    0.8202   -0.0031    0.0902    0.0231    0.0716    0.0330    0.1063    0.4815
          12    0.0745    0.4250    0.1804    0.6226   -0.0495   -0.2498   -0.0991   -0.2134
          13   -0.1893    0.3106    0.3692    0.0157    0.2421    0.7634    0.1074    0.0406
          14   -0.0120   -0.1623    0.0360    0.0596   -0.1644    0.0541   -0.0370   -0.0889
          15    0.0840    0.6103   -0.3337   -0.1524    0.3915   -0.1664   -0.0342   -0.0374


   Root No.       9

                 9 A   

                2723.4
  
           1    0.0000
           2   -0.0442
           3    0.0065
           4   -0.0057
           5    0.0076
           6   -0.0028
           7   -0.0159
           8   -0.2074
           9   -0.0562
          10    0.0765
          11    0.0082
          12   -0.0319
          13    0.0092
          14    0.9405
          15    0.2447


          DESCRIPTION OF VIBRATIONS


 VIBRATION          1    1A          ATOM PAIR     ENERGY CONTRIBUTION    RADIAL
 FREQUENCY         -1588.03         C 1 -- H 4         -56.0% (-93.3%)     35.8%
 TRANSITION DIPOLE   2.0987         O 3 -- H 4         -47.3% (-85.8%)     40.3%
 TRAVEL (Ang.)       0.2266         C 1 -- O 3          -2.0% (-17.4%)     73.5%
 REDUCED MASS        0.8266         C 1 -- O 2          -1.0% (-12.7%)     23.8%
 EFFECTIVE MASS      1.4199
 FORCE CONSTANT     -1.2282

 VIBRATION          2    2A          ATOM PAIR     ENERGY CONTRIBUTION    RADIAL
 FREQUENCY           204.87         O 3 -- H 5         +32.0% (157.7%)      0.4%
 TRANSITION DIPOLE   1.4897         C 1 -- H 4         +26.3% (143.0%)      3.5%
 TRAVEL (Ang.)       0.6644         C 1 -- O 3         +18.6% (120.1%)     55.5%
 REDUCED MASS        0.7457         C 1 -- O 2         +12.3% ( 97.7%)      0.0%
 EFFECTIVE MASS     13.1971         O 3 -- H 4         +10.9% ( 91.9%)      5.6%
 FORCE CONSTANT      0.0184

 VIBRATION          3    3A          ATOM PAIR     ENERGY CONTRIBUTION    RADIAL
 FREQUENCY           437.99         C 1 -- O 3         +41.4% (120.1%)     43.0%
 TRANSITION DIPOLE   0.9865         C 1 -- H 4         +25.0% ( 93.3%)      0.8%
 TRAVEL (Ang.)       0.2380         O 3 -- H 4         +13.2% ( 67.7%)      2.6%
 REDUCED MASS        2.7176         O 3 -- H 5         +11.3% ( 62.8%)     11.2%
 EFFECTIVE MASS     15.2371
 FORCE CONSTANT      0.3072

 VIBRATION          4    4A          ATOM PAIR     ENERGY CONTRIBUTION    RADIAL
 FREQUENCY           461.18         C 1 -- H 4         +44.1% ( 98.3%)      1.3%
 TRANSITION DIPOLE   0.6525         C 1 -- O 3         +19.9% ( 66.1%)      3.9%
 TRAVEL (Ang.)       0.2656         C 1 -- O 2         +14.7% ( 56.7%)      0.1%
 REDUCED MASS        2.0726         O 3 -- H 4         +11.7% ( 50.7%)      3.8%
 EFFECTIVE MASS      7.8734
 FORCE CONSTANT      0.2597

 VIBRATION          5    5A          ATOM PAIR     ENERGY CONTRIBUTION    RADIAL
 FREQUENCY           727.65         C 1 -- O 3         +40.0% ( 81.7%)     75.5%
 TRANSITION DIPOLE   1.9969         C 1 -- H 4         +21.4% ( 59.7%)      0.5%
 TRAVEL (Ang.)       0.1660         O 3 -- H 5         +19.0% ( 56.4%)     43.2%
 REDUCED MASS        3.3615         C 1 -- O 2         +10.7% ( 42.2%)      0.3%
 EFFECTIVE MASS      9.9278
 FORCE CONSTANT      1.0487

 VIBRATION          6    6A          ATOM PAIR     ENERGY CONTRIBUTION    RADIAL
 FREQUENCY           979.31         O 3 -- H 5         +73.8% ( 85.6%)      0.2%
 TRANSITION DIPOLE   0.7608         C 1 -- O 3         +10.2% ( 31.8%)     57.4%
 TRAVEL (Ang.)       0.2327         O 3 -- H 4          +9.0% ( 30.0%)     12.3%
 REDUCED MASS        1.2711         C 1 -- H 4          +4.5% ( 21.0%)     30.7%
 EFFECTIVE MASS      3.9856
 FORCE CONSTANT      0.7182

 VIBRATION          7    7A          ATOM PAIR     ENERGY CONTRIBUTION    RADIAL
 FREQUENCY          1908.93         C 1 -- O 2         +54.0% ( 95.0%)     99.7%
 TRANSITION DIPOLE   3.7630         C 1 -- H 4         +19.8% ( 57.5%)     79.1%
 TRAVEL (Ang.)       0.0826         C 1 -- O 3         +15.8% ( 51.4%)     17.7%
 REDUCED MASS        5.1760         O 3 -- H 4         +10.1% ( 41.1%)     66.4%
 EFFECTIVE MASS     12.3550
 FORCE CONSTANT     11.1128

 VIBRATION          8    8A          ATOM PAIR     ENERGY CONTRIBUTION    RADIAL
 FREQUENCY          2367.69         C 1 -- H 4         +48.8% ( 94.3%)     81.3%
 TRANSITION DIPOLE   1.2516         O 3 -- H 4         +43.3% ( 88.9%)     82.9%
 TRAVEL (Ang.)       0.1815         C 1 -- O 2          +4.7% ( 29.4%)     98.2%
 REDUCED MASS        0.8645         C 1 -- O 3          +2.7% ( 22.2%)     90.7%
 EFFECTIVE MASS      2.5384
 FORCE CONSTANT      2.8553

 VIBRATION          9    9A          ATOM PAIR     ENERGY CONTRIBUTION    RADIAL
 FREQUENCY          2723.37         O 3 -- H 5         +98.2% ( 99.3%)    100.0%
 TRANSITION DIPOLE   0.8586         O 3 -- H 4          +1.1% ( 10.5%)     90.7%
 TRAVEL (Ang.)       0.1628         C 1 -- H 4          +0.4% (  6.0%)     59.8%
 REDUCED MASS        0.9338         C 1 -- O 3          +0.3% (  5.7%)     49.1%
 EFFECTIVE MASS      1.3275
 FORCE CONSTANT      4.0805

      SYMMETRY NUMBER FOR POINT-GROUP C1  =  1


          SYSTEM IS A GROUND STATE


 title
 title


          MOLECULE IS NOT LINEAR

          THERE ARE  9 GENUINE VIBRATIONS IN THIS SYSTEM
          THIS THERMODYNAMICS CALCULATION IS LIMITED TO
          MOLECULES WHICH HAVE NO INTERNAL ROTATIONS




                    CALCULATED THERMODYNAMIC PROPERTIES
                                          *
   TEMP. (K)   PARTITION FUNCTION   H.O.F.    ENTHALPY  HEAT CAPACITY ENTROPY
                                   KCAL/MOL   CAL/MOLE    CAL/K/MOL  CAL/K/MOL


 298.00  VIB.     0.2112D+01                   769.7905     5.8067     4.0687
         ROT.     0.8808D+04                   888.2813     2.9808    21.0313
         INT.     0.1860D+05                  1658.0718     8.7875    25.1000
         TRA.     0.3019D+27                  1480.4688     4.9680    37.4027
         TOT.                      -35.710    3138.5407    13.7556    62.5028

   *: NOTE: HEATS OF FORMATION ARE RELATIVE TO THE
            ELEMENTS IN THEIR STANDARD STATE AT 298K
              (=  Standard Enthalpy of Formation).

            Hvib:  Zero-point energy is not included.
                   frequencies of less than zero cm-1 are not included.
            Hrot = (3/2)RT
            Htra = (3/2)RT + pV = (5/2)RT

            Heat capacity is Cp, not Cv

          For more information, see: HTTP://OpenMOPAC.net/Manual/thermochemistry.html


           FORCE CONSTANT IN CARTESIAN COORDINATES (Millidynes/A)

    ATOM   CHEMICAL       X               Y               Z
   NUMBER   SYMBOL  FORCE CONSTANT  FORCE CONSTANT  FORCE CONSTANT

      1       C       15.440306        1.502726        0.521548
      2       O       16.115881        0.523571        0.147779
      3       O        2.583560        5.411557        0.630649
      4       H        1.796401       -0.207712        0.262771
      5       H        0.345422        3.936545        0.349477

 **********************
 *                    *
 * JOB ENDED NORMALLY *
 *                    *
 **********************



 TOTAL JOB TIME:             0.02 SECONDS

 == MOPAC DONE ==
