 *******************************************************************************
 ** Site#:  999         For non-commercial use only           Version 21.129  **
 *******************************************************************************
 ** Cite this program as: MOPAC2016, Version: 21.129 , James J. P. Stewart,   **
 ** Stewart Computational Chemistry, web-site: HTTP://OpenMOPAC.net.          **
 *******************************************************************************
 **                                                                           **
 **                                MOPAC2016                                  **
 **                                                                           **
 *******************************************************************************

                              PM7 CALCULATION RESULTS

 *******************************************************************************
 *  CALCULATION DONE:                                Sun Nov 20 12:22:59 2022  *
 *  PM7        - The PM7 Hamiltonian to be used
 *
 *
 *
 *                 CHARGE ON SYSTEM = 0
 *
 *
 *
 *  THREADS=1  - MULTI-THREADING NOT USED
 *  T=         - A TIME OF 172800.0 SECONDS REQUESTED
 *  DUMP=N     - RESTART FILE WRITTEN EVERY 7200.0 SECONDS REQUESTED
 *  CYCLES=    - DO A MAXIMUM OF 5000 STEPS
 *  DENOUT     - SAVE DENSITY MATRIX FOR USE LATER
 *******************************************************************************
   pm7 threads=1 denout charge=0  cycles=5000
 title
 title
   ATOM   CHEMICAL          X               Y               Z
  NUMBER   SYMBOL      (ANGSTROMS)     (ANGSTROMS)     (ANGSTROMS)
 
     1       C         -0.30973000  *  -0.46899000  *   0.00000000  *
     2       O          1.02417000  *  -0.40412000  *   0.00001000  *
     3       O         -0.76911000  *   0.78499000  *  -0.00001000  *
     4       H          1.48598000  *  -1.26212000  *   0.00001000  *
     5       H         -1.73921000  *   0.87646000  *  -0.00001000  *
 


          CARTESIAN COORDINATES 

    NO.       ATOM           X           Y           Z

     1         C         -0.3097     -0.4690      0.0000
     2         O          1.0242     -0.4041      0.0000
     3         O         -0.7691      0.7850     -0.0000
     4         H          1.4860     -1.2621      0.0000
     5         H         -1.7392      0.8765     -0.0000

 General Reference for PM7:
 "Optimization of Parameters for Semiempirical Methods VI: More Modifications to the 
 NDDO Approximations and Re-optimization of Parameters", J. J. P. Stewart, J. Mol. Mod., 1:32, 19 (2013)
 https://link.springer.com/article/10.1007/s00894-012-1667-x

           Empirical Formula: C H2 O2  =     5 atoms



      MOLECULAR POINT GROUP   :   C2v 


      RHF CALCULATION, NO. OF DOUBLY OCCUPIED LEVELS = 9


          Geometry optimization using EF

          DIAGONAL MATRIX USED AS START HESSIAN

 CYCLE:     1 TIME:   0.000 TIME LEFT:  2.00D  GRAD.:     6.713 HEAT: -63.42728
 CYCLE:     2 TIME:   0.000 TIME LEFT:  2.00D  GRAD.:     7.192 HEAT: -63.42891
 CYCLE:     3 TIME:   0.000 TIME LEFT:  2.00D  GRAD.:     3.015 HEAT: -63.44125
 CYCLE:     4 TIME:   0.000 TIME LEFT:  2.00D  GRAD.:     3.734 HEAT: -63.43942
 CYCLE:     5 TIME:   0.000 TIME LEFT:  2.00D  GRAD.:     0.470 HEAT: -63.44421

     GRADIENT =  0.46955 IS LESS THAN CUTOFF =  1.00000



 -------------------------------------------------------------------------------
 pm7 threads=1 denout charge=0  cycles=5000
 title
 title


     GEOMETRY OPTIMISED USING EIGENVECTOR FOLLOWING (EF).     
     SCF FIELD WAS ACHIEVED                                   


                              PM7 CALCULATION
                                                       MOPAC2016 (Version: 21.129 )
                                                       Sun Nov 20 12:22:59 2022




          FINAL HEAT OF FORMATION =        -63.44421 KCAL/MOL =    -265.45059 KJ/MOL


          TOTAL ENERGY            =       -739.53702 EV
          ELECTRONIC ENERGY       =      -1626.50879 EV  POINT GROUP:     C2v 
          CORE-CORE REPULSION     =        886.97176 EV
          COSMO AREA              =         73.68 SQUARE ANGSTROMS
          COSMO VOLUME            =         54.68 CUBIC ANGSTROMS

          GRADIENT NORM           =          0.46955 = 0.20999 PER ATOM
          IONIZATION POTENTIAL    =         10.117511 EV
          HOMO LUMO ENERGIES (EV) =        -10.118  1.767
          NO. OF FILLED LEVELS    =          9
          MOLECULAR WEIGHT        =         46.0256

          MOLECULAR DIMENSIONS (Angstroms)

            Atom       Atom       Distance
            H     5    H     4     3.86367
            O     3    C     1     0.79044
            O     2    C     1     0.00001


          SCF CALCULATIONS        =          6
 
          WALL-CLOCK TIME         =          0.008 SECONDS
          COMPUTATION TIME        =          0.006 SECONDS




   ATOM   CHEMICAL          X               Y               Z
  NUMBER   SYMBOL      (ANGSTROMS)     (ANGSTROMS)     (ANGSTROMS)
 
     1       C         -0.30947937  *  -0.46832735  *   0.00000000  *
     2       O          1.02529244  *  -0.40572766  *   0.00000933  *
     3       O         -0.77081353  *   0.78569350  *  -0.00000933  *
     4       H          1.48440205  *  -1.25938798  *   0.00001151  *
     5       H         -1.73618204  *   0.87504283  *  -0.00001151  *

                             CARTESIAN COORDINATES

   1    C       -0.309479369    -0.468327353     0.000000004
   2    O        1.025292438    -0.405727660     0.000009328
   3    O       -0.770813531     0.785693502    -0.000009332
   4    H        1.484402049    -1.259387981     0.000011511
   5    H       -1.736182044     0.875042835    -0.000011510


           Empirical Formula: C H2 O2  =     5 atoms



      MOLECULAR POINT GROUP   :   C2v 


                  EIGENVALUES  
 -30.23847 -29.78442 -22.28560 -16.93746 -16.89382 -14.77633 -14.51411 -12.46385
 -10.11751   1.76692   2.68889   3.97013   5.53709   6.48899


              NET ATOMIC CHARGES AND DIPOLE CONTRIBUTIONS

  ATOM NO.   TYPE          CHARGE      No. of ELECS.   s-Pop       p-Pop       
    1          C           0.513860        3.4861     1.74132     1.74482
    2          O          -0.628382        6.6284     1.79803     4.83035
    3          O          -0.627924        6.6279     1.79831     4.82961
    4          H           0.371295        0.6287     0.62870
    5          H           0.371151        0.6288     0.62885
 DIPOLE           X         Y         Z       TOTAL
 POINT-CHG.    -1.981    -2.987     0.000     3.585
 HYBRID         0.878     1.322    -0.000     1.587
 SUM           -1.104    -1.665    -0.000     1.997


          ATOMIC ORBITAL ELECTRON POPULATIONS

     Atom    s        px        py        pz   
    1  C   1.74132   0.65782   0.74803   0.33896
    2  O   1.79803   1.46638   1.53341   1.83056
    3  O   1.79831   1.42068   1.57846   1.83047
    4  H   0.62870
    5  H   0.62885
 *******************************************************************************
 ** Site#:  999         For non-commercial use only           Version 21.129  **
 *******************************************************************************
 ** Cite this program as: MOPAC2016, Version: 21.129 , James J. P. Stewart,   **
 ** Stewart Computational Chemistry, web-site: HTTP://OpenMOPAC.net.          **
 *******************************************************************************
 **                                                                           **
 **                                MOPAC2016                                  **
 **                                                                           **
 *******************************************************************************

                              PM7 CALCULATION RESULTS

 *******************************************************************************
 *  CALCULATION DONE:                                Sun Nov 20 12:22:59 2022  *
 *  PM7        - The PM7 Hamiltonian to be used
 *
 *
 *
 *                 CHARGE ON SYSTEM = 0
 *
 *
 *
 *  LET        - OVERRIDE SOME SAFETY CHECKS
 *  OLDGEO     - PREVIOUS GEOMETRY TO BE USED
 *  FORCE      - FORCE CALCULATION SPECIFIED
 *  THREADS=1  - MULTI-THREADING NOT USED
 *  T=         - A TIME OF 172800.0 SECONDS REQUESTED
 *  DUMP=N     - RESTART FILE WRITTEN EVERY 7200.0 SECONDS REQUESTED
 *  OLDENS     - INITIAL DENSITY MATRIX READ OFF DISK
 *  THERMO     - THERMODYNAMIC QUANTITIES TO BE CALCULATED
 *******************************************************************************
  pm7 threads=1 oldens oldgeo charge=0 force let thermo(298,298)
 title
 title
   ATOM   CHEMICAL          X               Y               Z
  NUMBER   SYMBOL      (ANGSTROMS)     (ANGSTROMS)     (ANGSTROMS)
 
     1       C         -0.30947937  *  -0.46832735  *   0.00000000  *
     2       O          1.02529244  *  -0.40572766  *   0.00000933  *
     3       O         -0.77081353  *   0.78569350  *  -0.00000933  *
     4       H          1.48440205  *  -1.25938798  *   0.00001151  *
     5       H         -1.73618204  *   0.87504283  *  -0.00001151  *
 


          CARTESIAN COORDINATES 

    NO.       ATOM           X           Y           Z

     1         C         -0.3095     -0.4683      0.0000
     2         O          1.0253     -0.4057      0.0000
     3         O         -0.7708      0.7857     -0.0000
     4         H          1.4844     -1.2594      0.0000
     5         H         -1.7362      0.8750     -0.0000

 General Reference for PM7:
 "Optimization of Parameters for Semiempirical Methods VI: More Modifications to the 
 NDDO Approximations and Re-optimization of Parameters", J. J. P. Stewart, J. Mol. Mod., 1:32, 19 (2013)
 https://link.springer.com/article/10.1007/s00894-012-1667-x

           Empirical Formula: C H2 O2  =     5 atoms



      MOLECULAR POINT GROUP   :   C2v 


      RHF CALCULATION, NO. OF DOUBLY OCCUPIED LEVELS = 9



          HEAT OF FORMATION =     -63.444214 KCALS/MOLE


          CARTESIAN COORDINATE DERIVATIVES

   NUMBER  ATOM         X            Y            Z

     1       C     -0.260349    -0.015908     0.000001
     2       O      0.209234    -0.108205     0.000089
     3       O     -0.020326     0.141160    -0.000091
     4       H      0.198822    -0.063577    -0.000050
     5       H     -0.127382     0.046530     0.000051
 


          GRADIENT NORM =   0.45368


          TIME FOR SCF CALCULATION =    0.00

          TIME FOR DERIVATIVES     =    0.00

          MOLECULAR WEIGHT =   46.03



          ROTATIONAL CONSTANTS IN CM(-1)

          A =    3.02985391   B =    0.37725146   C =    0.33548032



           PRINCIPAL MOMENTS OF INERTIA IN UNITS OF 10**(-40)*GRAM-CM**2

          A =        9.2390   B =       74.2019   C =       83.4409


          ORIENTATION OF MOLECULE IN FORCE CALCULATION

    NO.       ATOM         X         Y         Z

     1          C      -0.3333   -0.4547    0.0000
     2          O       1.0029   -0.4547    0.0000
     3          O      -0.7354    0.8196    0.0000
     4          H       1.4215   -1.3289   -0.0000
     5          H      -1.6955    0.9541    0.0000


    FIRST DERIVATIVES WILL BE USED IN THE CALCULATION OF SECOND DERIVATIVES

          ESTIMATED TIME TO COMPLETE CALCULATION =        0.12 SECONDS

    FOR POINT-GROUP C2v  THERE ARE   4 UNIQUE SYMMETRY FUNCTIONS.

 STEP:   1 TIME =     0.00 SECS, INTEGRAL =      0.00 TIME LEFT: 172800.00
 STEP:   2 TIME =     0.00 SECS, INTEGRAL =      0.00 TIME LEFT: 172800.00
 STEP:   3 TIME =     0.00 SECS, INTEGRAL =      0.00 TIME LEFT: 172799.99
 STEP:   4 TIME =     0.00 SECS, INTEGRAL =      0.00 TIME LEFT: 172799.99
 STEP:   5 TIME =     0.00 SECS, INTEGRAL =      0.00 TIME LEFT: 172799.99
 STEP:   6 TIME =     0.00 SECS, INTEGRAL =      0.01 TIME LEFT: 172799.99
 STEP:   7                       INTEGRAL =      0.01 TIME LEFT: 172799.99
 STEP:   8                       INTEGRAL =      0.01 TIME LEFT: 172799.99
 STEP:   9                       INTEGRAL =      0.01 TIME LEFT: 172799.99
 STEP:  10 TIME =     0.00 SECS, INTEGRAL =      0.01 TIME LEFT: 172799.99
 STEP:  11 TIME =     0.00 SECS, INTEGRAL =      0.01 TIME LEFT: 172799.99
 STEP:  12 TIME =     0.00 SECS, INTEGRAL =      0.01 TIME LEFT: 172799.98
 STEP:  13                       INTEGRAL =      0.01 TIME LEFT: 172799.98
 STEP:  14                       INTEGRAL =      0.01 TIME LEFT: 172799.98
 STEP:  15                       INTEGRAL =      0.01 TIME LEFT: 172799.98

(To convert to Hartree/Bohr^2, multiply by (10^(-21) x N x a0^2)/(4.184 x 627.51) =  0.0642)


           FORCE MATRIX IN MILLIDYNES/ANGSTROM


                  C  1       O  2       O  3       H  4       H  5
 ------------------------------------------------------------------
     C    1  10.598447
     O    2   5.742604   8.581476
     O    3   5.746748   1.733438   8.581476
     H    4   1.059365   3.663779   0.126635   4.397333
     H    5   1.061328   0.126717   3.661581   0.052273   4.397333


          HEAT OF FORMATION =     -63.444214 KCALS/MOLE

          ZERO POINT ENERGY      16.172 KCAL/MOL


           NORMAL COORDINATE ANALYSIS (Total motion = 1 Angstrom)


   Root No.       1         2         3         4         5         6         7         8

                 1 A2      1 B1      1 A1      1 B2      2 A1      3 A1      2 B2      3 B2  

                 375.2     484.6     506.8     852.9     937.9    1239.4    1361.5    2770.3
  
           1   -0.0000   -0.0000   -0.0735   -0.0317    0.0091    0.2097    0.1950   -0.0119
           2   -0.0000    0.0000   -0.1003    0.0232    0.0124    0.2861   -0.1429    0.0087
           3    0.0001   -0.0453    0.0000   -0.0000    0.0000    0.0000   -0.0000   -0.0000
           4   -0.0000   -0.0000   -0.0837    0.0544    0.0220   -0.2033   -0.0875   -0.0116
           5    0.0000    0.0000    0.0949    0.0329   -0.0536   -0.0229    0.0228    0.0216
           6   -0.0508   -0.0123    0.0000    0.0000   -0.0000    0.0000    0.0000    0.0000
           7    0.0000   -0.0000    0.1156   -0.0150   -0.0578    0.0393   -0.0481   -0.0241
           8   -0.0000    0.0000   -0.0512   -0.0618    0.0049   -0.2008    0.0766    0.0045
           9    0.0507   -0.0123   -0.0000    0.0000    0.0000   -0.0000    0.0000    0.0000
          10    0.0000    0.0000    0.1859   -0.3531    0.3862   -0.0110   -0.2440    0.2582
          11   -0.0000   -0.0000    0.2498   -0.2214    0.1986    0.1176   -0.1542   -0.3905
          12    0.4493    0.4650   -0.0000   -0.0000   -0.0000   -0.0000   -0.0000   -0.0000
          13   -0.0000    0.0000    0.1822    0.1048    0.0731    0.1154    0.0736    0.4501
          14    0.0000   -0.0000    0.2525    0.4034    0.4281    0.0248    0.2791   -0.1286
          15   -0.4492    0.4651    0.0000   -0.0000    0.0000    0.0000   -0.0000   -0.0000


   Root No.       9

                 4 A1  

                2783.7
  
           1   -0.0025
           2   -0.0033
           3    0.0000
           4    0.0149
           5   -0.0216
           6    0.0000
           7   -0.0251
           8    0.0077
           9   -0.0000
          10   -0.2619
          11    0.3922
          12    0.0000
          13    0.4529
          14   -0.1316
          15   -0.0000


           MASS-WEIGHTED COORDINATE ANALYSIS (NORMAL COORDINATES)


   Root No.       1         2         3         4         5         6         7         8

                 1 A2      1 B1      1 A1      1 B2      2 A1      3 A1      2 B2      3 B2  

                 375.2     484.6     506.8     852.9     937.9    1239.4    1361.5    2770.3
  
           1   -0.0000   -0.0000   -0.2695   -0.1556    0.0450    0.4283    0.6352   -0.0603
           2   -0.0000    0.0000   -0.3678    0.1141    0.0614    0.5843   -0.4655    0.0442
           3    0.0004   -0.2301    0.0000   -0.0000    0.0000    0.0000   -0.0000   -0.0000
           4   -0.0000   -0.0000   -0.3541    0.3084    0.1258   -0.4793   -0.3292   -0.0681
           5    0.0000    0.0000    0.4015    0.1863   -0.3063   -0.0541    0.0857    0.1272
           6   -0.2903   -0.0721    0.0000    0.0000   -0.0000    0.0000    0.0000    0.0000
           7    0.0000   -0.0000    0.4895   -0.0848   -0.3300    0.0927   -0.1809   -0.1418
           8   -0.0000    0.0000   -0.2168   -0.3502    0.0277   -0.4734    0.2881    0.0266
           9    0.2900   -0.0721   -0.0000    0.0000    0.0000   -0.0000    0.0000    0.0000
          10    0.0000    0.0000    0.1975   -0.5024    0.5535   -0.0065   -0.2302    0.3807
          11   -0.0000   -0.0000    0.2654   -0.3149    0.2847    0.0696   -0.1455   -0.5757
          12    0.6449    0.6843   -0.0000   -0.0000   -0.0000   -0.0000   -0.0000   -0.0000
          13   -0.0000    0.0000    0.1936    0.1490    0.1048    0.0683    0.0694    0.6637
          14    0.0000   -0.0000    0.2683    0.5739    0.6136    0.0147    0.2634   -0.1896
          15   -0.6448    0.6844    0.0000   -0.0000    0.0000    0.0000   -0.0000   -0.0000


   Root No.       9

                 4 A1  

                2783.7
  
           1   -0.0124
           2   -0.0169
           3    0.0000
           4    0.0869
           5   -0.1261
           6    0.0000
           7   -0.1463
           8    0.0450
           9   -0.0000
          10   -0.3833
          11    0.5740
          12    0.0000
          13    0.6628
          14   -0.1926
          15   -0.0000


          DESCRIPTION OF VIBRATIONS


 VIBRATION          1    1A2         ATOM PAIR     ENERGY CONTRIBUTION    RADIAL
 FREQUENCY           375.21         O 2 -- H 4         +48.3% ( 78.1%)      0.0%
 TRANSITION DIPOLE   0.0002         O 3 -- H 5         +48.3% ( 78.1%)      0.0%
 TRAVEL (Ang.)       0.5589         O 2 -- O 3          +2.1% ( 16.4%)      0.0%
 REDUCED MASS        0.5753         C 1 -- O 2          +0.6% (  9.0%)      0.0%
 EFFECTIVE MASS      2.2330
 FORCE CONSTANT      0.0477

 VIBRATION          2    1B1         ATOM PAIR     ENERGY CONTRIBUTION    RADIAL
 FREQUENCY           484.59         O 3 -- H 5         +49.4% ( 59.5%)      0.0%
 TRANSITION DIPOLE   1.3384         O 2 -- H 4         +49.4% ( 59.5%)      0.0%
 TRAVEL (Ang.)       0.5403         C 1 -- O 2          +0.6% (  6.4%)      0.0%
 REDUCED MASS        0.4767         C 1 -- O 3          +0.6% (  6.4%)      0.0%
 EFFECTIVE MASS      1.3530
 FORCE CONSTANT      0.0659

 VIBRATION          3    1A1         ATOM PAIR     ENERGY CONTRIBUTION    RADIAL
 FREQUENCY           506.81         O 2 -- O 3         +39.4% (142.7%)    100.0%
 TRANSITION DIPOLE   0.4716         C 1 -- O 2         +20.8% (103.7%)      1.2%
 TRAVEL (Ang.)       0.2048         C 1 -- O 3         +20.8% (103.7%)      1.2%
 REDUCED MASS        3.1718         O 3 -- H 5          +9.4% ( 69.8%)     40.2%
 EFFECTIVE MASS     21.0484
 FORCE CONSTANT      0.4800

 VIBRATION          4    1B2         ATOM PAIR     ENERGY CONTRIBUTION    RADIAL
 FREQUENCY           852.90         O 3 -- H 5         +31.5% ( 71.6%)      1.2%
 TRANSITION DIPOLE   1.3595         O 2 -- H 4         +31.5% ( 71.6%)      1.1%
 TRAVEL (Ang.)       0.3134         C 1 -- O 2         +14.1% ( 47.8%)     97.6%
 REDUCED MASS        0.8050         C 1 -- O 3         +14.1% ( 47.8%)     97.6%
 EFFECTIVE MASS      5.5547
 FORCE CONSTANT      0.3450

 VIBRATION          5    2A1         ATOM PAIR     ENERGY CONTRIBUTION    RADIAL
 FREQUENCY           937.86         O 3 -- H 5         +37.3% ( 70.0%)     22.9%
 TRANSITION DIPOLE   0.2747         O 2 -- H 4         +37.3% ( 70.0%)     22.8%
 TRAVEL (Ang.)       0.3233         O 2 -- O 3         +13.8% ( 42.5%)    100.0%
 REDUCED MASS        0.6878         C 1 -- O 2          +5.8% ( 27.5%)      4.6%
 EFFECTIVE MASS      3.9369
 FORCE CONSTANT      0.3564

 VIBRATION          6    3A1         ATOM PAIR     ENERGY CONTRIBUTION    RADIAL
 FREQUENCY          1239.44         C 1 -- O 3         +36.6% ( 79.7%)     66.9%
 TRANSITION DIPOLE   3.1140         C 1 -- O 2         +36.6% ( 79.7%)     66.9%
 TRAVEL (Ang.)       0.1039         O 2 -- O 3         +15.0% ( 51.0%)    100.0%
 REDUCED MASS        5.0415         O 3 -- H 5          +5.9% ( 32.1%)      3.5%
 EFFECTIVE MASS     13.9337
 FORCE CONSTANT      4.5632

 VIBRATION          7    2B2         ATOM PAIR     ENERGY CONTRIBUTION    RADIAL
 FREQUENCY          1361.51         C 1 -- O 2         +40.9% ( 77.3%)     75.4%
 TRANSITION DIPOLE   3.9027         C 1 -- O 3         +40.9% ( 77.3%)     75.4%
 TRAVEL (Ang.)       0.0989         O 2 -- H 4          +6.2% ( 30.2%)     99.8%
 REDUCED MASS        5.0600         O 3 -- H 5          +6.2% ( 30.2%)     99.8%
 EFFECTIVE MASS     10.7161
 FORCE CONSTANT      5.5265

 VIBRATION          8    3B2         ATOM PAIR     ENERGY CONTRIBUTION    RADIAL
 FREQUENCY          2770.35         O 3 -- H 5         +49.7% ( 70.6%)     98.5%
 TRANSITION DIPOLE   2.2761         O 2 -- H 4         +49.7% ( 70.6%)     98.5%
 TRAVEL (Ang.)       0.2272         O 2 -- O 3          +0.3% (  5.3%)      0.0%
 REDUCED MASS        0.4717         C 1 -- O 3          +0.2% (  4.4%)      0.9%
 EFFECTIVE MASS      1.3063
 FORCE CONSTANT      2.1331

 VIBRATION          9    4A1         ATOM PAIR     ENERGY CONTRIBUTION    RADIAL
 FREQUENCY          2783.69         O 2 -- H 4         +49.5% ( 70.4%)     97.9%
 TRANSITION DIPOLE   0.1081         O 3 -- H 5         +49.5% ( 70.4%)     97.9%
 TRAVEL (Ang.)       0.2258         O 2 -- O 3          +0.5% (  7.2%)    100.0%
 REDUCED MASS        0.4750         C 1 -- O 2          +0.2% (  4.8%)     45.2%
 EFFECTIVE MASS      1.3410
 FORCE CONSTANT      2.1685

      SYMMETRY NUMBER FOR POINT-GROUP C2v =  2


          SYSTEM IS A GROUND STATE


 title
 title


          MOLECULE IS NOT LINEAR

          THERE ARE  9 GENUINE VIBRATIONS IN THIS SYSTEM
          THIS THERMODYNAMICS CALCULATION IS LIMITED TO
          MOLECULES WHICH HAVE NO INTERNAL ROTATIONS




                    CALCULATED THERMODYNAMIC PROPERTIES
                                          *
   TEMP. (K)   PARTITION FUNCTION   H.O.F.    ENTHALPY  HEAT CAPACITY ENTROPY
                                   KCAL/MOL   CAL/MOLE    CAL/K/MOL  CAL/K/MOL


 298.00  VIB.     0.1494D+01                   578.6365     5.3586     2.7395
         ROT.     0.4266D+04                   888.2813     2.9808    19.5907
         INT.     0.6373D+04                  1466.9178     8.3394    22.3303
         TRA.     0.3019D+27                  1480.4688     4.9680    37.4027
         TOT.                      -63.444    2947.3866    13.3074    59.7330

   *: NOTE: HEATS OF FORMATION ARE RELATIVE TO THE
            ELEMENTS IN THEIR STANDARD STATE AT 298K
              (=  Standard Enthalpy of Formation).

            Hvib:  Zero-point energy is not included.
                   frequencies of less than zero cm-1 are not included.
            Hrot = (3/2)RT
            Htra = (3/2)RT + pV = (5/2)RT

            Heat capacity is Cp, not Cv

          For more information, see: HTTP://OpenMOPAC.net/Manual/thermochemistry.html


           FORCE CONSTANT IN CARTESIAN COORDINATES (Millidynes/A)

    ATOM   CHEMICAL       X               Y               Z
   NUMBER   SYMBOL  FORCE CONSTANT  FORCE CONSTANT  FORCE CONSTANT

      1       C        7.763640        7.014039        0.110198
      2       O        7.195445        3.918760        0.127143
      3       O        5.255731        5.858473        0.127143
      4       H        1.669389        3.149719        0.100725
      5       H        4.058740        0.760369        0.100725

 **********************
 *                    *
 * JOB ENDED NORMALLY *
 *                    *
 **********************



 TOTAL JOB TIME:             0.03 SECONDS

 == MOPAC DONE ==
