 *******************************************************************************
 ** Site#:  999         For non-commercial use only           Version 21.129  **
 *******************************************************************************
 ** Cite this program as: MOPAC2016, Version: 21.129 , James J. P. Stewart,   **
 ** Stewart Computational Chemistry, web-site: HTTP://OpenMOPAC.net.          **
 *******************************************************************************
 **                                                                           **
 **                                MOPAC2016                                  **
 **                                                                           **
 *******************************************************************************

                              PM7 CALCULATION RESULTS

 *******************************************************************************
 *  CALCULATION DONE:                                Sun Nov 20 12:22:58 2022  *
 *  PM7        - The PM7 Hamiltonian to be used
 *
 *
 *
 *                 CHARGE ON SYSTEM = 0
 *
 *
 *
 *  THREADS=1  - MULTI-THREADING NOT USED
 *  T=         - A TIME OF 172800.0 SECONDS REQUESTED
 *  DUMP=N     - RESTART FILE WRITTEN EVERY 7200.0 SECONDS REQUESTED
 *  CYCLES=    - DO A MAXIMUM OF 5000 STEPS
 *  DENOUT     - SAVE DENSITY MATRIX FOR USE LATER
 *******************************************************************************
   pm7 threads=1 denout charge=0  cycles=5000
 title
 title
   ATOM   CHEMICAL          X               Y               Z
  NUMBER   SYMBOL      (ANGSTROMS)     (ANGSTROMS)     (ANGSTROMS)
 
     1       C         -0.15090000  *  -0.42835000  *   0.01836000  *
     2       O          1.04428000  *  -0.42822000  *  -0.05418000  *
     3       O         -0.78246000  *   0.78377000  *   0.03058000  *
     4       H         -0.80995000  *  -1.29122000  *   0.07692000  *
     5       H         -1.74954000  *   0.74923000  *   0.09049000  *
 


          CARTESIAN COORDINATES 

    NO.       ATOM           X           Y           Z

     1         C         -0.1509     -0.4284      0.0184
     2         O          1.0443     -0.4282     -0.0542
     3         O         -0.7825      0.7838      0.0306
     4         H         -0.8100     -1.2912      0.0769
     5         H         -1.7495      0.7492      0.0905

 General Reference for PM7:
 "Optimization of Parameters for Semiempirical Methods VI: More Modifications to the 
 NDDO Approximations and Re-optimization of Parameters", J. J. P. Stewart, J. Mol. Mod., 1:32, 19 (2013)
 https://link.springer.com/article/10.1007/s00894-012-1667-x

           Empirical Formula: C H2 O2  =     5 atoms



      MOLECULAR POINT GROUP   :   Cs  


      RHF CALCULATION, NO. OF DOUBLY OCCUPIED LEVELS = 9


          Geometry optimization using EF

          DIAGONAL MATRIX USED AS START HESSIAN

 CYCLE:     1 TIME:   0.000 TIME LEFT:  2.00D  GRAD.:     6.854 HEAT: -80.78257
 CYCLE:     2 TIME:   0.000 TIME LEFT:  2.00D  GRAD.:     8.984 HEAT: -80.78794
 CYCLE:     3 TIME:   0.004 TIME LEFT:  2.00D  GRAD.:     7.076 HEAT: -80.79040
 CYCLE:     4 TIME:   0.000 TIME LEFT:  2.00D  GRAD.:     1.641 HEAT: -80.79923
 CYCLE:     5 TIME:   0.000 TIME LEFT:  2.00D  GRAD.:     1.577 HEAT: -80.79942
 CYCLE:     6 TIME:   0.000 TIME LEFT:  2.00D  GRAD.:     0.702 HEAT: -80.80003

     GRADIENT =  0.70186 IS LESS THAN CUTOFF =  1.00000



 -------------------------------------------------------------------------------
 pm7 threads=1 denout charge=0  cycles=5000
 title
 title


     GEOMETRY OPTIMISED USING EIGENVECTOR FOLLOWING (EF).     
     SCF FIELD WAS ACHIEVED                                   


                              PM7 CALCULATION
                                                       MOPAC2016 (Version: 21.129 )
                                                       Sun Nov 20 12:22:58 2022




          FINAL HEAT OF FORMATION =        -80.80003 KCAL/MOL =    -338.06731 KJ/MOL


          TOTAL ENERGY            =       -740.29054 EV
          ELECTRONIC ENERGY       =      -1636.71262 EV  POINT GROUP:     Cs  
          CORE-CORE REPULSION     =        896.42208 EV
          COSMO AREA              =         71.87 SQUARE ANGSTROMS
          COSMO VOLUME            =         52.84 CUBIC ANGSTROMS

          GRADIENT NORM           =          0.70186 = 0.31388 PER ATOM
          IONIZATION POTENTIAL    =         11.220907 EV
          HOMO LUMO ENERGIES (EV) =        -11.221  0.648
          NO. OF FILLED LEVELS    =          9
          MOLECULAR WEIGHT        =         46.0256

          MOLECULAR DIMENSIONS (Angstroms)

            Atom       Atom       Distance
            H     5    O     2     3.04029
            H     4    O     3     1.92639
            H     4    H     5     0.00107


          SCF CALCULATIONS        =          7
 
          WALL-CLOCK TIME         =          0.008 SECONDS
          COMPUTATION TIME        =          0.007 SECONDS




   ATOM   CHEMICAL          X               Y               Z
  NUMBER   SYMBOL      (ANGSTROMS)     (ANGSTROMS)     (ANGSTROMS)
 
     1       C         -0.15064690  *  -0.42903949  *   0.01836554  *
     2       O          1.04378850  *  -0.42752427  *  -0.05406806  *
     3       O         -0.78062697  *   0.78356918  *   0.03024422  *
     4       H         -0.81042768  *  -1.29192471  *   0.07671314  *
     5       H         -1.75528100  *   0.75034307  *   0.09156958  *

                             CARTESIAN COORDINATES

   1    C       -0.150646901    -0.429039491     0.018365540
   2    O        1.043788505    -0.427524274    -0.054068062
   3    O       -0.780626973     0.783569181     0.030244218
   4    H       -0.810427677    -1.291924708     0.076713142
   5    H       -1.755280998     0.750343069     0.091569579


           Empirical Formula: C H2 O2  =     5 atoms



      MOLECULAR POINT GROUP   :   Cs  


                  EIGENVALUES  
 -31.63704 -30.40440 -22.75259 -19.47089 -15.58006 -15.44405 -14.18287 -12.26038
 -11.22091   0.64805   1.90807   3.77600   4.48635   5.48760


              NET ATOMIC CHARGES AND DIPOLE CONTRIBUTIONS

  ATOM NO.   TYPE          CHARGE      No. of ELECS.   s-Pop       p-Pop       
    1          C           0.518104        3.4819     1.14054     2.34135
    2          O          -0.410965        6.4110     1.87620     4.53476
    3          O          -0.561237        6.5612     1.83083     4.73040
    4          H           0.115236        0.8848     0.88476
    5          H           0.338863        0.6611     0.66114
 DIPOLE           X         Y         Z       TOTAL
 POINT-CHG.    -3.636    -1.830     0.262     4.079
 HYBRID        -0.142     0.231     0.004     0.271
 SUM           -3.779    -1.599     0.266     4.112


          ATOMIC ORBITAL ELECTRON POPULATIONS

     Atom    s        px        py        pz   
    1  C   1.14054   0.84192   0.81458   0.68485
    2  O   1.87620   1.24556   1.84250   1.44670
    3  O   1.83083   1.37301   1.49036   1.86703
    4  H   0.88476
    5  H   0.66114
 *******************************************************************************
 ** Site#:  999         For non-commercial use only           Version 21.129  **
 *******************************************************************************
 ** Cite this program as: MOPAC2016, Version: 21.129 , James J. P. Stewart,   **
 ** Stewart Computational Chemistry, web-site: HTTP://OpenMOPAC.net.          **
 *******************************************************************************
 **                                                                           **
 **                                MOPAC2016                                  **
 **                                                                           **
 *******************************************************************************

                              PM7 CALCULATION RESULTS

 *******************************************************************************
 *  CALCULATION DONE:                                Sun Nov 20 12:22:58 2022  *
 *  PM7        - The PM7 Hamiltonian to be used
 *
 *
 *
 *                 CHARGE ON SYSTEM = 0
 *
 *
 *
 *  LET        - OVERRIDE SOME SAFETY CHECKS
 *  OLDGEO     - PREVIOUS GEOMETRY TO BE USED
 *  FORCE      - FORCE CALCULATION SPECIFIED
 *  THREADS=1  - MULTI-THREADING NOT USED
 *  T=         - A TIME OF 172800.0 SECONDS REQUESTED
 *  DUMP=N     - RESTART FILE WRITTEN EVERY 7200.0 SECONDS REQUESTED
 *  OLDENS     - INITIAL DENSITY MATRIX READ OFF DISK
 *  THERMO     - THERMODYNAMIC QUANTITIES TO BE CALCULATED
 *******************************************************************************
  pm7 threads=1 oldens oldgeo charge=0 force let thermo(298,298)
 title
 title
   ATOM   CHEMICAL          X               Y               Z
  NUMBER   SYMBOL      (ANGSTROMS)     (ANGSTROMS)     (ANGSTROMS)
 
     1       C         -0.15064690  *  -0.42903949  *   0.01836554  *
     2       O          1.04378850  *  -0.42752427  *  -0.05406806  *
     3       O         -0.78062697  *   0.78356918  *   0.03024422  *
     4       H         -0.81042768  *  -1.29192471  *   0.07671314  *
     5       H         -1.75528100  *   0.75034307  *   0.09156958  *
 


          CARTESIAN COORDINATES 

    NO.       ATOM           X           Y           Z

     1         C         -0.1506     -0.4290      0.0184
     2         O          1.0438     -0.4275     -0.0541
     3         O         -0.7806      0.7836      0.0302
     4         H         -0.8104     -1.2919      0.0767
     5         H         -1.7553      0.7503      0.0916

 General Reference for PM7:
 "Optimization of Parameters for Semiempirical Methods VI: More Modifications to the 
 NDDO Approximations and Re-optimization of Parameters", J. J. P. Stewart, J. Mol. Mod., 1:32, 19 (2013)
 https://link.springer.com/article/10.1007/s00894-012-1667-x

           Empirical Formula: C H2 O2  =     5 atoms



      MOLECULAR POINT GROUP   :   Cs  


      RHF CALCULATION, NO. OF DOUBLY OCCUPIED LEVELS = 9



          HEAT OF FORMATION =     -80.800026 KCALS/MOLE


          CARTESIAN COORDINATE DERIVATIVES

   NUMBER  ATOM         X            Y            Z

     1       C      0.238514    -0.280518     0.025330
     2       O     -0.432335     0.119918    -0.000899
     3       O      0.306141     0.023158    -0.024159
     4       H      0.088400     0.159066    -0.015740
     5       H     -0.200722    -0.021626     0.015468
 


          GRADIENT NORM =   0.71184

          MOLECULAR WEIGHT =   46.03



          ROTATIONAL CONSTANTS IN CM(-1)

          A =    2.64346958   B =    0.40012264   C =    0.34752097



           PRINCIPAL MOMENTS OF INERTIA IN UNITS OF 10**(-40)*GRAM-CM**2

          A =       10.5894   B =       69.9605   C =       80.5499


          ORIENTATION OF MOLECULE IN FORCE CALCULATION

    NO.       ATOM         X         Y         Z

     1          C      -0.1480   -0.4289   -0.0000
     2          O       1.0486   -0.4289   -0.0000
     3          O      -0.7760    0.7848   -0.0000
     4          H      -0.8112   -1.2911   -0.0004
     5          H      -1.7526    0.7528    0.0015


    FIRST DERIVATIVES WILL BE USED IN THE CALCULATION OF SECOND DERIVATIVES

          ESTIMATED TIME TO COMPLETE CALCULATION =        0.00 SECONDS

    FOR POINT-GROUP Cs   THERE ARE   2 UNIQUE SYMMETRY FUNCTIONS.

 STEP:   1 TIME =     0.00 SECS, INTEGRAL =      0.00 TIME LEFT: 172800.00
 STEP:   2 TIME =     0.00 SECS, INTEGRAL =      0.00 TIME LEFT: 172800.00
 STEP:   3 TIME =     0.00 SECS, INTEGRAL =      0.00 TIME LEFT: 172800.00
 STEP:   4 TIME =     0.00 SECS, INTEGRAL =      0.00 TIME LEFT: 172800.00
 STEP:   5 TIME =     0.00 SECS, INTEGRAL =      0.00 TIME LEFT: 172800.00
 STEP:   6 TIME =     0.00 SECS, INTEGRAL =      0.00 TIME LEFT: 172800.00
 STEP:   7 TIME =     0.00 SECS, INTEGRAL =      0.00 TIME LEFT: 172800.00
 STEP:   8 TIME =     0.00 SECS, INTEGRAL =      0.01 TIME LEFT: 172799.99
 STEP:   9 TIME =     0.00 SECS, INTEGRAL =      0.01 TIME LEFT: 172799.99
 STEP:  10 TIME =     0.00 SECS, INTEGRAL =      0.01 TIME LEFT: 172799.99
 STEP:  11 TIME =     0.00 SECS, INTEGRAL =      0.01 TIME LEFT: 172799.99
 STEP:  12 TIME =     0.00 SECS, INTEGRAL =      0.01 TIME LEFT: 172799.99
 STEP:  13 TIME =     0.00 SECS, INTEGRAL =      0.01 TIME LEFT: 172799.99
 STEP:  14 TIME =     0.00 SECS, INTEGRAL =      0.01 TIME LEFT: 172799.99
 STEP:  15 TIME =     0.00 SECS, INTEGRAL =      0.01 TIME LEFT: 172799.99

(To convert to Hartree/Bohr^2, multiply by (10^(-21) x N x a0^2)/(4.184 x 627.51) =  0.0642)


           FORCE MATRIX IN MILLIDYNES/ANGSTROM


                  C  1       O  2       O  3       H  4       H  5
 ------------------------------------------------------------------
     C    1  17.656244
     O    2  12.770880  14.722249
     O    3   4.772974   1.967695   8.690008
     H    4   3.211345   0.841384   0.664695   4.002095
     H    5   1.007667   0.245730   3.820260   0.084601   4.438274


          HEAT OF FORMATION =     -80.800026 KCALS/MOLE

          ZERO POINT ENERGY      18.165 KCAL/MOL


           NORMAL COORDINATE ANALYSIS (Total motion = 1 Angstrom)


   Root No.       1         2         3         4         5         6         7         8

                 1 A"      1 A'      2 A"      2 A'      3 A'      4 A'      5 A'      6 A'  

                 367.0     562.5     947.2    1120.7    1202.0    1236.8    1839.8    2642.5
  
           1   -0.0000   -0.0873   -0.0000    0.0047    0.0207   -0.0402    0.3402   -0.0471
           2    0.0000   -0.1455    0.0000    0.0917   -0.1069    0.1009   -0.0219   -0.0486
           3   -0.0280   -0.0000   -0.1623   -0.0001   -0.0000    0.0000   -0.0000    0.0000
           4    0.0000   -0.0887    0.0000    0.0190    0.0407   -0.0452   -0.2537    0.0037
           5   -0.0000    0.1540   -0.0000   -0.0121   -0.0109   -0.0231   -0.0033   -0.0022
           6    0.0329    0.0000    0.0443    0.0000    0.0000   -0.0000    0.0000   -0.0000
           7   -0.0000    0.1479    0.0000   -0.0194   -0.0681    0.0344   -0.0182    0.0049
           8    0.0000   -0.0549   -0.0000   -0.1045    0.0786   -0.0237    0.0017   -0.0030
           9   -0.0524    0.0000    0.0294    0.0000    0.0000    0.0000    0.0000   -0.0000
          10   -0.0000   -0.0535    0.0000   -0.0812    0.2136    0.6414    0.1559    0.5100
          11    0.0000   -0.1435   -0.0000    0.1459   -0.2311   -0.4405    0.1873    0.6642
          12   -0.1219   -0.0001    0.7185   -0.0002   -0.0001   -0.0001    0.0000    0.0001
          13    0.0001    0.1558    0.0000    0.0316   -0.0249    0.0090    0.1050   -0.0848
          14   -0.0000    0.3042   -0.0000    0.6116    0.4295   -0.0188    0.0979   -0.0035
          15    0.7649    0.0000    0.0455    0.0000    0.0000    0.0000    0.0000    0.0000


   Root No.       9

                 7 A'  

                2787.6
  
           1   -0.0216
           2    0.0001
           3   -0.0000
           4    0.0065
           5   -0.0006
           6    0.0000
           7   -0.0470
           8    0.0017
           9   -0.0000
          10    0.0540
          11    0.0530
          12   -0.0001
          13    0.8463
          14   -0.0698
          15   -0.0001


           MASS-WEIGHTED COORDINATE ANALYSIS (NORMAL COORDINATES)


   Root No.       1         2         3         4         5         6         7         8

                 1 A"      1 A'      2 A"      2 A'      3 A'      4 A'      5 A'      6 A'  

                 367.0     562.5     947.2    1120.7    1202.0    1236.8    1839.8    2642.5
  
           1   -0.0000   -0.2567   -0.0000    0.0195    0.0906   -0.1537    0.7440   -0.1861
           2    0.0000   -0.4275    0.0000    0.3808   -0.4667    0.3858   -0.0478   -0.1918
           3   -0.1180   -0.0001   -0.5982   -0.0002   -0.0002    0.0000   -0.0000    0.0001
           4    0.0000   -0.3010    0.0000    0.0909    0.2049   -0.1994   -0.6403    0.0168
           5   -0.0000    0.5223   -0.0000   -0.0578   -0.0547   -0.1019   -0.0082   -0.0098
           6    0.1600    0.0001    0.1886    0.0001    0.0000   -0.0000    0.0000   -0.0001
           7   -0.0000    0.5016    0.0000   -0.0928   -0.3432    0.1517   -0.0458    0.0223
           8    0.0000   -0.1862   -0.0000   -0.5009    0.3962   -0.1047    0.0043   -0.0138
           9   -0.2549    0.0001    0.1249    0.0002    0.0002    0.0000    0.0000   -0.0000
          10   -0.0000   -0.0456    0.0001   -0.0978    0.2701    0.7105    0.0988    0.5836
          11    0.0000   -0.1222   -0.0000    0.1756   -0.2921   -0.4879    0.1186    0.7599
          12   -0.1490   -0.0001    0.7672   -0.0002   -0.0002   -0.0001    0.0000    0.0001
          13    0.0001    0.1326    0.0000    0.0380   -0.0314    0.0100    0.0665   -0.0970
          14   -0.0001    0.2590   -0.0000    0.7359    0.5431   -0.0208    0.0620   -0.0040
          15    0.9345    0.0000    0.0485    0.0000    0.0000    0.0000    0.0000    0.0000


   Root No.       9

                 7 A'  

                2787.6
  
           1   -0.0852
           2    0.0003
           3   -0.0001
           4    0.0296
           5   -0.0029
           6    0.0002
           7   -0.2136
           8    0.0075
           9   -0.0000
          10    0.0616
          11    0.0605
          12   -0.0002
          13    0.9656
          14   -0.0797
          15   -0.0002


          DESCRIPTION OF VIBRATIONS


 VIBRATION          1    1A"         ATOM PAIR     ENERGY CONTRIBUTION    RADIAL
 FREQUENCY           367.04         O 3 -- H 5         +89.8% ( 94.0%)      0.0%
 TRANSITION DIPOLE   0.8661         C 1 -- O 2          +7.0% ( 26.3%)      0.0%
 TRAVEL (Ang.)       0.4650         C 1 -- O 3          +1.6% ( 12.7%)      0.0%
 REDUCED MASS        0.8495         C 1 -- H 4          +1.5% ( 12.1%)      0.0%
 EFFECTIVE MASS      1.9000
 FORCE CONSTANT      0.0674

 VIBRATION          2    1A'         ATOM PAIR     ENERGY CONTRIBUTION    RADIAL
 FREQUENCY           562.51         C 1 -- O 3         +38.2% (118.9%)      2.8%
 TRANSITION DIPOLE   0.4348         C 1 -- O 2         +27.0% (100.0%)      0.2%
 TRAVEL (Ang.)       0.1695         C 1 -- H 4         +22.3% ( 90.8%)     99.7%
 REDUCED MASS        4.1740         O 3 -- H 5         +12.6% ( 68.3%)     37.5%
 EFFECTIVE MASS     19.6956
 FORCE CONSTANT      0.7781

 VIBRATION          3    2A"         ATOM PAIR     ENERGY CONTRIBUTION    RADIAL
 FREQUENCY           947.24         C 1 -- H 4         +75.1% ( 94.7%)      0.0%
 TRANSITION DIPOLE   0.0981         C 1 -- O 2         +13.1% ( 39.6%)      0.0%
 TRAVEL (Ang.)       0.1930         C 1 -- O 3         +11.7% ( 37.4%)      0.0%
 REDUCED MASS        1.9115
 EFFECTIVE MASS      4.1577
 FORCE CONSTANT      1.0105

 VIBRATION          4    2A'         ATOM PAIR     ENERGY CONTRIBUTION    RADIAL
 FREQUENCY          1120.75         O 3 -- H 5         +54.1% ( 85.3%)      1.9%
 TRANSITION DIPOLE   1.1486         C 1 -- O 3         +27.7% ( 61.1%)     67.7%
 TRAVEL (Ang.)       0.1920         C 1 -- O 2          +9.4% ( 35.6%)      2.6%
 REDUCED MASS        1.6328         C 1 -- H 4          +8.7% ( 34.3%)     98.1%
 EFFECTIVE MASS      6.1267
 FORCE CONSTANT      1.2083

 VIBRATION          5    3A'         ATOM PAIR     ENERGY CONTRIBUTION    RADIAL
 FREQUENCY          1202.03         C 1 -- O 3         +38.2% ( 71.5%)    100.0%
 TRANSITION DIPOLE   0.9428         O 3 -- H 5         +29.4% ( 62.7%)     84.3%
 TRAVEL (Ang.)       0.1689         C 1 -- H 4         +18.7% ( 50.0%)     98.0%
 REDUCED MASS        1.9675         C 1 -- O 2         +13.7% ( 42.9%)      7.1%
 EFFECTIVE MASS      8.2801
 FORCE CONSTANT      1.6749

 VIBRATION          6    4A'         ATOM PAIR     ENERGY CONTRIBUTION    RADIAL
 FREQUENCY          1236.80         C 1 -- H 4         +72.2% ( 94.6%)      1.8%
 TRANSITION DIPOLE   1.0262         C 1 -- O 3         +16.2% ( 44.9%)     99.4%
 TRAVEL (Ang.)       0.2368         C 1 -- O 2         +10.3% ( 35.7%)      0.9%
 REDUCED MASS        0.9722         O 3 -- H 5          +1.3% ( 12.8%)     71.1%
 EFFECTIVE MASS      3.7709
 FORCE CONSTANT      0.8763

 VIBRATION          7    5A'         ATOM PAIR     ENERGY CONTRIBUTION    RADIAL
 FREQUENCY          1839.84         C 1 -- O 2         +57.3% ( 99.5%)     99.9%
 TRANSITION DIPOLE   4.5793         C 1 -- O 3         +21.4% ( 60.8%)     26.7%
 TRAVEL (Ang.)       0.0757         C 1 -- H 4         +20.5% ( 59.6%)     15.4%
 REDUCED MASS        6.4003         O 3 -- H 5          +0.8% ( 11.5%)     81.7%
 EFFECTIVE MASS     13.3630
 FORCE CONSTANT     12.7648

 VIBRATION          8    6A'         ATOM PAIR     ENERGY CONTRIBUTION    RADIAL
 FREQUENCY          2642.52         C 1 -- H 4         +95.6% ( 99.5%)     99.9%
 TRANSITION DIPOLE   0.2371         C 1 -- O 2          +1.8% ( 13.5%)     55.4%
 TRAVEL (Ang.)       0.1674         C 1 -- O 3          +1.6% ( 12.9%)      5.2%
 REDUCED MASS        0.9109         O 3 -- H 5          +1.1% ( 10.4%)     98.7%
 EFFECTIVE MASS      1.4780
 FORCE CONSTANT      3.7476

 VIBRATION          9    7A'         ATOM PAIR     ENERGY CONTRIBUTION    RADIAL
 FREQUENCY          2787.62         O 3 -- H 5         +98.1% ( 99.0%)     98.9%
 TRANSITION DIPOLE   1.4053         C 1 -- H 4          +1.0% ( 10.0%)     74.8%
 TRAVEL (Ang.)       0.1620         C 1 -- O 3          +0.5% (  7.4%)     25.9%
 REDUCED MASS        0.9222         C 1 -- O 2          +0.3% (  5.7%)     99.9%
 EFFECTIVE MASS      1.3792
 FORCE CONSTANT      4.2224

      SYMMETRY NUMBER FOR POINT-GROUP Cs  =  1


          SYSTEM IS A GROUND STATE


 title
 title


          MOLECULE IS NOT LINEAR

          THERE ARE  9 GENUINE VIBRATIONS IN THIS SYSTEM
          THIS THERMODYNAMICS CALCULATION IS LIMITED TO
          MOLECULES WHICH HAVE NO INTERNAL ROTATIONS




                    CALCULATED THERMODYNAMIC PROPERTIES
                                          *
   TEMP. (K)   PARTITION FUNCTION   H.O.F.    ENTHALPY  HEAT CAPACITY ENTROPY
                                   KCAL/MOL   CAL/MOLE    CAL/K/MOL  CAL/K/MOL


 298.00  VIB.     0.1317D+01                   391.6559     3.7597     1.8614
         ROT.     0.8714D+04                   888.2813     2.9808    21.0102
         INT.     0.1148D+05                  1279.9372     6.7406    22.8716
         TRA.     0.3019D+27                  1480.4688     4.9680    37.4027
         TOT.                      -80.800    2760.4060    11.7086    60.2743

   *: NOTE: HEATS OF FORMATION ARE RELATIVE TO THE
            ELEMENTS IN THEIR STANDARD STATE AT 298K
              (=  Standard Enthalpy of Formation).

            Hvib:  Zero-point energy is not included.
                   frequencies of less than zero cm-1 are not included.
            Hrot = (3/2)RT
            Htra = (3/2)RT + pV = (5/2)RT

            Heat capacity is Cp, not Cv

          For more information, see: HTTP://OpenMOPAC.net/Manual/thermochemistry.html


           FORCE CONSTANT IN CARTESIAN COORDINATES (Millidynes/A)

    ATOM   CHEMICAL       X               Y               Z
   NUMBER   SYMBOL  FORCE CONSTANT  FORCE CONSTANT  FORCE CONSTANT

      1       C       15.861629        7.409590        2.287395
      2       O       14.676389        1.051859        0.334078
      3       O        6.230865        5.385269        0.216900
      4       H        1.977914        2.755229        0.316533
      5       H        4.355784        0.707356        0.071266

 **********************
 *                    *
 * JOB ENDED NORMALLY *
 *                    *
 **********************



 TOTAL JOB TIME:             0.03 SECONDS

 == MOPAC DONE ==
