 *******************************************************************************
 ** Site#:  999         For non-commercial use only           Version 21.129  **
 *******************************************************************************
 ** Cite this program as: MOPAC2016, Version: 21.129 , James J. P. Stewart,   **
 ** Stewart Computational Chemistry, web-site: HTTP://OpenMOPAC.net.          **
 *******************************************************************************
 **                                                                           **
 **                                MOPAC2016                                  **
 **                                                                           **
 *******************************************************************************

                              PM7 CALCULATION RESULTS

 *******************************************************************************
 *  CALCULATION DONE:                                Sun Nov 20 12:22:58 2022  *
 *  PM7        - The PM7 Hamiltonian to be used
 *
 *
 *
 *                 CHARGE ON SYSTEM = 0
 *
 *
 *
 *  THREADS=1  - MULTI-THREADING NOT USED
 *  T=         - A TIME OF 172800.0 SECONDS REQUESTED
 *  DUMP=N     - RESTART FILE WRITTEN EVERY 7200.0 SECONDS REQUESTED
 *  CYCLES=    - DO A MAXIMUM OF 5000 STEPS
 *  DENOUT     - SAVE DENSITY MATRIX FOR USE LATER
 *******************************************************************************
   pm7 threads=1 denout charge=0  cycles=5000
 title
 title
   ATOM   CHEMICAL          X               Y               Z
  NUMBER   SYMBOL      (ANGSTROMS)     (ANGSTROMS)     (ANGSTROMS)
 
     1       C         -0.15098000  *  -0.43128000  *   0.00733000  *
     2       O          1.04904000  *  -0.42055000  *  -0.00902000  *
     3       O         -0.86813000  *   0.71526000  *   0.00294000  *
     4       H         -0.84151000  *  -1.26952000  *   0.02696000  *
     5       H         -0.32387000  *   1.54988000  *  -0.01466000  *
 


          CARTESIAN COORDINATES 

    NO.       ATOM           X           Y           Z

     1         C         -0.1510     -0.4313      0.0073
     2         O          1.0490     -0.4206     -0.0090
     3         O         -0.8681      0.7153      0.0029
     4         H         -0.8415     -1.2695      0.0270
     5         H         -0.3239      1.5499     -0.0147

 General Reference for PM7:
 "Optimization of Parameters for Semiempirical Methods VI: More Modifications to the 
 NDDO Approximations and Re-optimization of Parameters", J. J. P. Stewart, J. Mol. Mod., 1:32, 19 (2013)
 https://link.springer.com/article/10.1007/s00894-012-1667-x

           Empirical Formula: C H2 O2  =     5 atoms



      MOLECULAR POINT GROUP   :   Cs  


      RHF CALCULATION, NO. OF DOUBLY OCCUPIED LEVELS = 9


          Geometry optimization using EF

          DIAGONAL MATRIX USED AS START HESSIAN

 CYCLE:     1 TIME:   0.000 TIME LEFT:  2.00D  GRAD.:     7.339 HEAT: -89.52143
 CYCLE:     2 TIME:   0.000 TIME LEFT:  2.00D  GRAD.:     5.035 HEAT: -89.53576
 CYCLE:     3 TIME:   0.000 TIME LEFT:  2.00D  GRAD.:     2.855 HEAT: -89.54278
 CYCLE:     4 TIME:   0.000 TIME LEFT:  2.00D  GRAD.:     3.100 HEAT: -89.54156
 CYCLE:     5 TIME:   0.000 TIME LEFT:  2.00D  GRAD.:     0.186 HEAT: -89.54500

     GRADIENT =  0.18587 IS LESS THAN CUTOFF =  1.00000



 -------------------------------------------------------------------------------
 pm7 threads=1 denout charge=0  cycles=5000
 title
 title


     GEOMETRY OPTIMISED USING EIGENVECTOR FOLLOWING (EF).     
     SCF FIELD WAS ACHIEVED                                   


                              PM7 CALCULATION
                                                       MOPAC2016 (Version: 21.129 )
                                                       Sun Nov 20 12:22:58 2022




          FINAL HEAT OF FORMATION =        -89.54500 KCAL/MOL =    -374.65629 KJ/MOL


          TOTAL ENERGY            =       -740.66998 EV
          ELECTRONIC ENERGY       =      -1640.94153 EV  POINT GROUP:     Cs  
          CORE-CORE REPULSION     =        900.27155 EV
          COSMO AREA              =         71.84 SQUARE ANGSTROMS
          COSMO VOLUME            =         52.97 CUBIC ANGSTROMS

          GRADIENT NORM           =          0.18587 = 0.08312 PER ATOM
          IONIZATION POTENTIAL    =         11.529069 EV
          HOMO LUMO ENERGIES (EV) =        -11.529  0.605
          NO. OF FILLED LEVELS    =          9
          MOLECULAR WEIGHT        =         46.0256

          MOLECULAR DIMENSIONS (Angstroms)

            Atom       Atom       Distance
            H     5    H     4     2.86098
            O     3    O     2     2.09005
            O     2    H     4     0.00012


          SCF CALCULATIONS        =          6
 
          WALL-CLOCK TIME         =          0.008 SECONDS
          COMPUTATION TIME        =          0.006 SECONDS




   ATOM   CHEMICAL          X               Y               Z
  NUMBER   SYMBOL      (ANGSTROMS)     (ANGSTROMS)     (ANGSTROMS)
 
     1       C         -0.15101866  *  -0.43067988  *   0.00732989  *
     2       O          1.04896729  *  -0.42035928  *  -0.00903123  *
     3       O         -0.86739420  *   0.71657980  *   0.00287852  *
     4       H         -0.84179089  *  -1.27077095  *   0.02703209  *
     5       H         -0.32609752  *   1.54304106  *  -0.01444203  *

                             CARTESIAN COORDINATES

   1    C       -0.151018663    -0.430679884     0.007329891
   2    O        1.048967290    -0.420359276    -0.009031225
   3    O       -0.867394203     0.716579795     0.002878519
   4    H       -0.841790894    -1.270770952     0.027032085
   5    H       -0.326097520     1.543041062    -0.014442032


           Empirical Formula: C H2 O2  =     5 atoms



      MOLECULAR POINT GROUP   :   Cs  


                  EIGENVALUES  
 -31.81680 -30.20749 -23.40531 -17.78059 -17.10931 -15.58662 -13.90037 -12.42083
 -11.52907   0.60482   2.09495   3.84245   4.64685   5.32818


              NET ATOMIC CHARGES AND DIPOLE CONTRIBUTIONS

  ATOM NO.   TYPE          CHARGE      No. of ELECS.   s-Pop       p-Pop       
    1          C           0.541458        3.4585     1.14821     2.31033
    2          O          -0.489178        6.4892     1.87586     4.61332
    3          O          -0.565503        6.5655     1.83555     4.72996
    4          H           0.156481        0.8435     0.84352
    5          H           0.356742        0.6433     0.64326
 DIPOLE           X         Y         Z       TOTAL
 POINT-CHG.    -1.693    -0.390     0.028     1.737
 HYBRID         0.303     0.485    -0.010     0.572
 SUM           -1.389     0.095     0.018     1.393


          ATOMIC ORBITAL ELECTRON POPULATIONS

     Atom    s        px        py        pz   
    1  C   1.14821   0.82612   0.82710   0.65711
    2  O   1.87586   1.27198   1.85731   1.48402
    3  O   1.83555   1.53875   1.33235   1.85885
    4  H   0.84352
    5  H   0.64326
 *******************************************************************************
 ** Site#:  999         For non-commercial use only           Version 21.129  **
 *******************************************************************************
 ** Cite this program as: MOPAC2016, Version: 21.129 , James J. P. Stewart,   **
 ** Stewart Computational Chemistry, web-site: HTTP://OpenMOPAC.net.          **
 *******************************************************************************
 **                                                                           **
 **                                MOPAC2016                                  **
 **                                                                           **
 *******************************************************************************

                              PM7 CALCULATION RESULTS

 *******************************************************************************
 *  CALCULATION DONE:                                Sun Nov 20 12:22:58 2022  *
 *  PM7        - The PM7 Hamiltonian to be used
 *
 *
 *
 *                 CHARGE ON SYSTEM = 0
 *
 *
 *
 *  LET        - OVERRIDE SOME SAFETY CHECKS
 *  OLDGEO     - PREVIOUS GEOMETRY TO BE USED
 *  FORCE      - FORCE CALCULATION SPECIFIED
 *  THREADS=1  - MULTI-THREADING NOT USED
 *  T=         - A TIME OF 172800.0 SECONDS REQUESTED
 *  DUMP=N     - RESTART FILE WRITTEN EVERY 7200.0 SECONDS REQUESTED
 *  OLDENS     - INITIAL DENSITY MATRIX READ OFF DISK
 *  THERMO     - THERMODYNAMIC QUANTITIES TO BE CALCULATED
 *******************************************************************************
  pm7 threads=1 oldens oldgeo charge=0 force let thermo(298,298)
 title
 title
   ATOM   CHEMICAL          X               Y               Z
  NUMBER   SYMBOL      (ANGSTROMS)     (ANGSTROMS)     (ANGSTROMS)
 
     1       C         -0.15101866  *  -0.43067988  *   0.00732989  *
     2       O          1.04896729  *  -0.42035928  *  -0.00903123  *
     3       O         -0.86739420  *   0.71657980  *   0.00287852  *
     4       H         -0.84179089  *  -1.27077095  *   0.02703209  *
     5       H         -0.32609752  *   1.54304106  *  -0.01444203  *
 


          CARTESIAN COORDINATES 

    NO.       ATOM           X           Y           Z

     1         C         -0.1510     -0.4307      0.0073
     2         O          1.0490     -0.4204     -0.0090
     3         O         -0.8674      0.7166      0.0029
     4         H         -0.8418     -1.2708      0.0270
     5         H         -0.3261      1.5430     -0.0144

 General Reference for PM7:
 "Optimization of Parameters for Semiempirical Methods VI: More Modifications to the 
 NDDO Approximations and Re-optimization of Parameters", J. J. P. Stewart, J. Mol. Mod., 1:32, 19 (2013)
 https://link.springer.com/article/10.1007/s00894-012-1667-x

           Empirical Formula: C H2 O2  =     5 atoms



      MOLECULAR POINT GROUP   :   Cs  


      RHF CALCULATION, NO. OF DOUBLY OCCUPIED LEVELS = 9



          HEAT OF FORMATION =     -89.545001 KCALS/MOLE


          CARTESIAN COORDINATE DERIVATIVES

   NUMBER  ATOM         X            Y            Z

     1       C      0.032079    -0.010490     0.001184
     2       O     -0.067997     0.005959    -0.002317
     3       O     -0.087655     0.086365    -0.004439
     4       H      0.056585    -0.046503     0.001127
     5       H      0.066987    -0.035332     0.004445
 


          GRADIENT NORM =   0.17913

          MOLECULAR WEIGHT =   46.03



          ROTATIONAL CONSTANTS IN CM(-1)

          A =    2.41164424   B =    0.41068519   C =    0.35092522



           PRINCIPAL MOMENTS OF INERTIA IN UNITS OF 10**(-40)*GRAM-CM**2

          A =       11.6073   B =       68.1611   C =       79.7685


          ORIENTATION OF MOLECULE IN FORCE CALCULATION

    NO.       ATOM         X         Y         Z

     1          C      -0.1529   -0.4260   -0.0000
     2          O       1.0472   -0.4260   -0.0000
     3          O      -0.8593    0.7275   -0.0000
     4          H      -0.8511   -1.2601   -0.0000
     5          H      -0.3107    1.5493    0.0002


    FIRST DERIVATIVES WILL BE USED IN THE CALCULATION OF SECOND DERIVATIVES

          ESTIMATED TIME TO COMPLETE CALCULATION =        0.12 SECONDS

    FOR POINT-GROUP Cs   THERE ARE   2 UNIQUE SYMMETRY FUNCTIONS.

 STEP:   1 TIME =     0.00 SECS, INTEGRAL =      0.00 TIME LEFT: 172800.00
 STEP:   2 TIME =     0.00 SECS, INTEGRAL =      0.00 TIME LEFT: 172800.00
 STEP:   3 TIME =     0.00 SECS, INTEGRAL =      0.00 TIME LEFT: 172800.00
 STEP:   4 TIME =     0.00 SECS, INTEGRAL =      0.00 TIME LEFT: 172800.00
 STEP:   5 TIME =     0.00 SECS, INTEGRAL =      0.00 TIME LEFT: 172800.00
 STEP:   6 TIME =     0.00 SECS, INTEGRAL =      0.00 TIME LEFT: 172800.00
 STEP:   7 TIME =     0.00 SECS, INTEGRAL =      0.00 TIME LEFT: 172800.00
 STEP:   8 TIME =     0.00 SECS, INTEGRAL =      0.00 TIME LEFT: 172800.00
 STEP:   9 TIME =     0.00 SECS, INTEGRAL =      0.00 TIME LEFT: 172800.00
 STEP:  10 TIME =     0.00 SECS, INTEGRAL =      0.01 TIME LEFT: 172799.99
 STEP:  11 TIME =     0.00 SECS, INTEGRAL =      0.01 TIME LEFT: 172799.99
 STEP:  12 TIME =     0.00 SECS, INTEGRAL =      0.01 TIME LEFT: 172799.99
 STEP:  13 TIME =     0.00 SECS, INTEGRAL =      0.01 TIME LEFT: 172799.99
 STEP:  14 TIME =     0.00 SECS, INTEGRAL =      0.01 TIME LEFT: 172799.99
 STEP:  15 TIME =     0.00 SECS, INTEGRAL =      0.01 TIME LEFT: 172799.99

(To convert to Hartree/Bohr^2, multiply by (10^(-21) x N x a0^2)/(4.184 x 627.51) =  0.0642)


           FORCE MATRIX IN MILLIDYNES/ANGSTROM


                  C  1       O  2       O  3       H  4       H  5
 ------------------------------------------------------------------
     C    1  17.929014
     O    2  12.709683  14.515769
     O    3   5.129746   1.856305   9.009611
     H    4   3.254453   0.758170   0.747616   4.047883
     H    5   1.204856   0.203030   3.792233   0.144528   4.465409


          HEAT OF FORMATION =     -89.545001 KCALS/MOLE

          ZERO POINT ENERGY      18.569 KCAL/MOL


           NORMAL COORDINATE ANALYSIS (Total motion = 1 Angstrom)


   Root No.       1         2         3         4         5         6         7         8

                 1 A'      1 A"      2 A"      2 A'      3 A'      4 A'      5 A'      6 A'  

                 550.7     585.3     956.5    1062.9    1233.0    1308.9    1840.4    2663.0
  
           1   -0.0797   -0.0000    0.0000    0.0056   -0.0409   -0.0117    0.3191   -0.0524
           2   -0.1303   -0.0000    0.0000   -0.0200    0.1345    0.1061   -0.0165   -0.0465
           3   -0.0000    0.0711   -0.1407   -0.0000    0.0000    0.0000    0.0000   -0.0000
           4   -0.0768    0.0000   -0.0000    0.0300   -0.0624    0.0106   -0.2350    0.0064
           5    0.1345    0.0000   -0.0000   -0.0216   -0.0176   -0.0013   -0.0013   -0.0018
           6    0.0000   -0.0328    0.0368    0.0000   -0.0000    0.0000    0.0000    0.0000
           7    0.1136    0.0000   -0.0000   -0.0788    0.0656   -0.0147   -0.0208    0.0024
           8   -0.0163    0.0000   -0.0000    0.0644   -0.0654   -0.0775    0.0065   -0.0002
           9   -0.0000   -0.0724    0.0182   -0.0000   -0.0000   -0.0000   -0.0000    0.0000
          10   -0.0271   -0.0000   -0.0000    0.3131    0.5126   -0.2063    0.1289    0.5272
          11   -0.1464   -0.0000   -0.0000   -0.2581   -0.3332    0.2436    0.2216    0.6544
          12    0.0000    0.1070    0.6841   -0.0000   -0.0000   -0.0000   -0.0000    0.0000
          13    0.3906   -0.0000   -0.0000    0.3944   -0.0764    0.4110    0.1282   -0.0425
          14   -0.1766   -0.0000   -0.0000   -0.1828    0.0486   -0.2566   -0.1075   -0.0684
          15   -0.0000    0.7167    0.1201   -0.0000    0.0000    0.0000    0.0000    0.0000


   Root No.       9

                 7 A'  

                2788.7
  
           1   -0.0003
           2   -0.0168
           3   -0.0000
           4   -0.0023
           5    0.0000
           6    0.0000
           7   -0.0242
           8   -0.0398
           9    0.0000
          10    0.0398
          11    0.0607
          12   -0.0000
          13    0.3848
          14    0.7710
          15    0.0001


           MASS-WEIGHTED COORDINATE ANALYSIS (NORMAL COORDINATES)


   Root No.       1         2         3         4         5         6         7         8

                 1 A'      1 A"      2 A"      2 A'      3 A'      4 A'      5 A'      6 A'  

                 550.7     585.3     956.5    1062.9    1233.0    1308.9    1840.4    2663.0
  
           1   -0.2654   -0.0000    0.0000    0.0263   -0.1558   -0.0532    0.7437   -0.2060
           2   -0.4341   -0.0000    0.0000   -0.0938    0.5127    0.4837   -0.0384   -0.1827
           3   -0.0000    0.2962   -0.5628   -0.0000    0.0000    0.0000    0.0000   -0.0000
           4   -0.2951    0.0000   -0.0000    0.1619   -0.2744    0.0557   -0.6319    0.0290
           5    0.5171    0.0000   -0.0000   -0.1166   -0.0776   -0.0069   -0.0035   -0.0084
           6    0.0000   -0.1577    0.1698    0.0000   -0.0000    0.0000    0.0000    0.0000
           7    0.4370    0.0000   -0.0000   -0.4252    0.2885   -0.0775   -0.0560    0.0110
           8   -0.0627    0.0000   -0.0000    0.3477   -0.2878   -0.4079    0.0174   -0.0008
           9   -0.0000   -0.3486    0.0840   -0.0000   -0.0000   -0.0000   -0.0000    0.0000
          10   -0.0261   -0.0000   -0.0000    0.4242    0.5659   -0.2726    0.0870    0.6000
          11   -0.1413   -0.0000   -0.0000   -0.3496   -0.3678    0.3219    0.1496    0.7448
          12    0.0000    0.1292    0.7925   -0.0000   -0.0000   -0.0000   -0.0000    0.0000
          13    0.3770   -0.0000   -0.0000    0.5343   -0.0843    0.5429    0.0866   -0.0484
          14   -0.1705   -0.0000   -0.0000   -0.2477    0.0537   -0.3390   -0.0726   -0.0779
          15   -0.0000    0.8656    0.1391   -0.0000    0.0000    0.0000    0.0000    0.0000


   Root No.       9

                 7 A'  

                2788.7
  
           1   -0.0010
           2   -0.0653
           3   -0.0000
           4   -0.0105
           5    0.0002
           6    0.0000
           7   -0.1089
           8   -0.1791
           9    0.0000
          10    0.0449
          11    0.0685
          12   -0.0000
          13    0.4341
          14    0.8698
          15    0.0001


          DESCRIPTION OF VIBRATIONS


 VIBRATION          1    1A'         ATOM PAIR     ENERGY CONTRIBUTION    RADIAL
 FREQUENCY           550.70         C 1 -- O 3         +35.6% (122.0%)      0.4%
 TRANSITION DIPOLE   1.0064         C 1 -- O 2         +27.0% (106.2%)      0.1%
 TRAVEL (Ang.)       0.1883         C 1 -- H 4         +23.7% ( 99.4%)    100.0%
 REDUCED MASS        3.4524         O 3 -- H 5         +13.7% ( 75.7%)     99.4%
 EFFECTIVE MASS     17.6672
 FORCE CONSTANT      0.6169

 VIBRATION          2    1A"         ATOM PAIR     ENERGY CONTRIBUTION    RADIAL
 FREQUENCY           585.29         O 3 -- H 5         +73.6% ( 88.5%)      0.0%
 TRANSITION DIPOLE   1.3044         C 1 -- O 3         +13.8% ( 38.3%)      0.0%
 TRAVEL (Ang.)       0.3569         C 1 -- O 2         +10.6% ( 33.6%)      0.0%
 REDUCED MASS        0.9046         C 1 -- H 4          +2.1% ( 14.9%)      0.0%
 EFFECTIVE MASS      3.6409
 FORCE CONSTANT      0.1826

 VIBRATION          3    2A"         ATOM PAIR     ENERGY CONTRIBUTION    RADIAL
 FREQUENCY           956.52         C 1 -- H 4         +77.7% ( 94.6%)      0.0%
 TRANSITION DIPOLE   0.0905         C 1 -- O 2         +11.6% ( 36.5%)      0.0%
 TRAVEL (Ang.)       0.2088         C 1 -- O 3         +10.3% ( 34.5%)      0.0%
 REDUCED MASS        1.6171         O 3 -- H 5          +0.3% (  6.2%)      0.0%
 EFFECTIVE MASS      3.6968
 FORCE CONSTANT      0.8717

 VIBRATION          4    2A'         ATOM PAIR     ENERGY CONTRIBUTION    RADIAL
 FREQUENCY          1062.89         O 3 -- H 5         +50.9% ( 81.3%)      0.1%
 TRANSITION DIPOLE   0.6120         C 1 -- H 4         +26.8% ( 59.0%)      1.6%
 TRAVEL (Ang.)       0.1934         C 1 -- O 3         +19.5% ( 50.3%)     94.0%
 REDUCED MASS        1.6964         C 1 -- O 2          +2.8% ( 19.2%)     97.2%
 EFFECTIVE MASS      5.8478
 FORCE CONSTANT      1.1292

 VIBRATION          5    3A'         ATOM PAIR     ENERGY CONTRIBUTION    RADIAL
 FREQUENCY          1232.99         C 1 -- H 4         +45.5% ( 82.5%)      3.5%
 TRANSITION DIPOLE   1.5229         C 1 -- O 3         +31.6% ( 68.7%)     99.8%
 TRAVEL (Ang.)       0.1770         C 1 -- O 2         +16.1% ( 49.1%)      3.9%
 REDUCED MASS        1.7465         O 3 -- H 5          +6.7% ( 31.6%)      2.3%
 EFFECTIVE MASS      7.6338
 FORCE CONSTANT      1.5643

 VIBRATION          6    4A'         ATOM PAIR     ENERGY CONTRIBUTION    RADIAL
 FREQUENCY          1308.88         O 3 -- H 5         +35.5% ( 64.0%)     41.4%
 TRANSITION DIPOLE   0.9074         C 1 -- O 3         +29.8% ( 58.7%)     70.3%
 TRAVEL (Ang.)       0.1953         C 1 -- H 4         +20.5% ( 48.6%)     94.4%
 REDUCED MASS        1.3506         C 1 -- O 2         +14.2% ( 40.5%)      4.7%
 EFFECTIVE MASS      5.7063
 FORCE CONSTANT      1.3632

 VIBRATION          7    5A'         ATOM PAIR     ENERGY CONTRIBUTION    RADIAL
 FREQUENCY          1840.44         C 1 -- O 2         +56.9% ( 98.7%)     99.9%
 TRANSITION DIPOLE   4.4399         C 1 -- O 3         +21.9% ( 61.2%)     33.7%
 TRAVEL (Ang.)       0.0766         C 1 -- H 4         +20.8% ( 59.7%)     16.5%
 REDUCED MASS        6.2460         O 3 -- H 5          +0.4% (  8.5%)      0.1%
 EFFECTIVE MASS     13.2002
 FORCE CONSTANT     12.4650

 VIBRATION          8    6A'         ATOM PAIR     ENERGY CONTRIBUTION    RADIAL
 FREQUENCY          2663.02         C 1 -- H 4         +95.2% ( 99.5%)    100.0%
 TRANSITION DIPOLE   0.4115         C 1 -- O 2          +2.1% ( 14.8%)     64.5%
 TRAVEL (Ang.)       0.1666         C 1 -- O 3          +1.8% ( 13.9%)      2.2%
 REDUCED MASS        0.9125         O 3 -- H 5          +0.9% (  9.5%)     99.5%
 EFFECTIVE MASS      1.5266
 FORCE CONSTANT      3.8127

 VIBRATION          9    7A'         ATOM PAIR     ENERGY CONTRIBUTION    RADIAL
 FREQUENCY          2788.73         O 3 -- H 5         +98.8% ( 99.3%)     98.8%
 TRANSITION DIPOLE   1.4260         C 1 -- H 4          +0.8% (  8.9%)     87.2%
 TRAVEL (Ang.)       0.1611         C 1 -- O 3          +0.3% (  5.5%)      6.7%
 REDUCED MASS        0.9312
 EFFECTIVE MASS      1.3215
 FORCE CONSTANT      4.2668

      SYMMETRY NUMBER FOR POINT-GROUP Cs  =  1


          SYSTEM IS A GROUND STATE


 title
 title


          MOLECULE IS NOT LINEAR

          THERE ARE  9 GENUINE VIBRATIONS IN THIS SYSTEM
          THIS THERMODYNAMICS CALCULATION IS LIMITED TO
          MOLECULES WHICH HAVE NO INTERNAL ROTATIONS




                    CALCULATED THERMODYNAMIC PROPERTIES
                                          *
   TEMP. (K)   PARTITION FUNCTION   H.O.F.    ENTHALPY  HEAT CAPACITY ENTROPY
                                   KCAL/MOL   CAL/MOLE    CAL/K/MOL  CAL/K/MOL


 298.00  VIB.     0.1167D+01                   285.9920     3.2900     1.2659
         ROT.     0.8962D+04                   888.2813     2.9808    21.0658
         INT.     0.1045D+05                  1174.2733     6.2708    22.3317
         TRA.     0.3019D+27                  1480.4688     4.9680    37.4027
         TOT.                      -89.545    2654.7421    11.2389    59.7344

   *: NOTE: HEATS OF FORMATION ARE RELATIVE TO THE
            ELEMENTS IN THEIR STANDARD STATE AT 298K
              (=  Standard Enthalpy of Formation).

            Hvib:  Zero-point energy is not included.
                   frequencies of less than zero cm-1 are not included.
            Hrot = (3/2)RT
            Htra = (3/2)RT + pV = (5/2)RT

            Heat capacity is Cp, not Cv

          For more information, see: HTTP://OpenMOPAC.net/Manual/thermochemistry.html


           FORCE CONSTANT IN CARTESIAN COORDINATES (Millidynes/A)

    ATOM   CHEMICAL       X               Y               Z
   NUMBER   SYMBOL  FORCE CONSTANT  FORCE CONSTANT  FORCE CONSTANT

      1       C       15.838028        8.084068        2.261170
      2       O       14.470867        1.001525        0.330832
      3       O        4.739967        7.534566        0.456337
      4       H        2.026293        2.715998        0.346377
      5       H        1.418462        3.695994        0.163490

 **********************
 *                    *
 * JOB ENDED NORMALLY *
 *                    *
 **********************



 TOTAL JOB TIME:             0.03 SECONDS

 == MOPAC DONE ==
