 *******************************************************************************
 ** Site#:  999         For non-commercial use only           Version 21.129  **
 *******************************************************************************
 ** Cite this program as: MOPAC2016, Version: 21.129 , James J. P. Stewart,   **
 ** Stewart Computational Chemistry, web-site: HTTP://OpenMOPAC.net.          **
 *******************************************************************************
 **                                                                           **
 **                                MOPAC2016                                  **
 **                                                                           **
 *******************************************************************************

                              PM7 CALCULATION RESULTS

 *******************************************************************************
 *  CALCULATION DONE:                                Sun Nov 20 12:23:43 2022  *
 *  PM7        - The PM7 Hamiltonian to be used
 *
 *
 *
 *                 CHARGE ON SYSTEM = 0
 *
 *
 *
 *  IRC=N      - INTRINSIC REACTION COORDINATE -1 DEFINED
 *  PRECISE    - TIGHTER CRITERIA TO BE USED
 *  THREADS=1  - MULTI-THREADING NOT USED
 *  T=         - A TIME OF 172800.0 SECONDS REQUESTED
 *  DUMP=N     - RESTART FILE WRITTEN EVERY 7200.0 SECONDS REQUESTED
 *  CYCLES=    - DO A MAXIMUM OF 5000 STEPS
 *  OLDENS     - INITIAL DENSITY MATRIX READ OFF DISK
 *******************************************************************************
   pm7 threads=1 charge=0 irc=-1 oldens precise cycles=5000
 title
 title
   ATOM   CHEMICAL          X               Y               Z
  NUMBER   SYMBOL      (ANGSTROMS)     (ANGSTROMS)     (ANGSTROMS)
 
     1       C          0.00000000  *   0.00000000  *   0.00000000  *
     2       O          1.33754461  *   0.00000000  *   0.00000000  *
     3       O         -0.42198498  *   1.24984250  *   0.00000000  *
     4       H          1.80413358  *  -0.81932481  *   0.18613299  *
     5       H         -0.89985599  *   1.73153508  *  -0.64322291  *
 


          CARTESIAN COORDINATES 

    NO.       ATOM           X           Y           Z

     1         C          0.0000      0.0000      0.0000
     2         O          1.3375      0.0000      0.0000
     3         O         -0.4220      1.2498      0.0000
     4         H          1.8041     -0.8193      0.1861
     5         H         -0.8999      1.7315     -0.6432

 General Reference for PM7:
 "Optimization of Parameters for Semiempirical Methods VI: More Modifications to the 
 NDDO Approximations and Re-optimization of Parameters", J. J. P. Stewart, J. Mol. Mod., 1:32, 19 (2013)
 https://link.springer.com/article/10.1007/s00894-012-1667-x

           Empirical Formula: C H2 O2  =     5 atoms



      MOLECULAR POINT GROUP   :   C1  


      RHF CALCULATION, NO. OF DOUBLY OCCUPIED LEVELS = 9



          HEAT OF FORMATION =     -60.452218 KCALS/MOLE


          GRADIENT NORM =   0.02328

          MOLECULAR WEIGHT =   46.03


          ESTIMATED TIME TO COMPLETE CALCULATION =        0.00 SECONDS

    FOR POINT-GROUP C1   THERE ARE   1 UNIQUE SYMMETRY FUNCTIONS.

 STEP:   1 TIME =     0.00 SECS, INTEGRAL =      0.00 TIME LEFT: 172800.00
 STEP:   2 TIME =     0.00 SECS, INTEGRAL =      0.00 TIME LEFT: 172800.00
 STEP:   3 TIME =     0.00 SECS, INTEGRAL =      0.01 TIME LEFT: 172799.99
 STEP:   4 TIME =     0.00 SECS, INTEGRAL =      0.01 TIME LEFT: 172799.99
 STEP:   5 TIME =     0.00 SECS, INTEGRAL =      0.01 TIME LEFT: 172799.99
 STEP:   6 TIME =     0.00 SECS, INTEGRAL =      0.01 TIME LEFT: 172799.99
 STEP:   7 TIME =     0.00 SECS, INTEGRAL =      0.02 TIME LEFT: 172799.98
 STEP:   8 TIME =     0.00 SECS, INTEGRAL =      0.02 TIME LEFT: 172799.98
 STEP:   9 TIME =     0.00 SECS, INTEGRAL =      0.02 TIME LEFT: 172799.98
 STEP:  10 TIME =     0.00 SECS, INTEGRAL =      0.02 TIME LEFT: 172799.98
 STEP:  11 TIME =     0.00 SECS, INTEGRAL =      0.02 TIME LEFT: 172799.98
 STEP:  12 TIME =     0.00 SECS, INTEGRAL =      0.02 TIME LEFT: 172799.98
 STEP:  13 TIME =     0.00 SECS, INTEGRAL =      0.03 TIME LEFT: 172799.97
 STEP:  14 TIME =     0.00 SECS, INTEGRAL =      0.03 TIME LEFT: 172799.97
 STEP:  15 TIME =     0.00 SECS, INTEGRAL =      0.03 TIME LEFT: 172799.97
  Stopping critera: r_ij>5*r_ij(0)
 
           INITIAL VELOCITY IN DRC (Angstroms/Femtosecond)
         0.00666         0.01839         0.04787
         0.00882        -0.00028        -0.02501
        -0.05841        -0.04129        -0.00050
         0.04386         0.02982        -0.01481
         0.66392         0.41083        -0.15065
 
  Deltat    =   0.24 fs
  Maxcyc    =      5000
  Jloop_lim =      5000
 
  Initial distance matrix
  Bond#     i     j    Ini_value(A)
      1     1     2          1.338
      2     1     3          1.319
      3     1     4          1.990
      4     1     5          2.055
      5     2     3          2.158
      6     2     4          0.961
      7     2     5          2.901
      8     3     4          3.045
      9     3     5          0.935
     10     4     5          3.809
 
 


     POINT   POTENTIAL  +  ENERGY LOST   =   TOTAL      ERROR    REF%   MOVEMENT
       1     -60.45222      0.00000        -60.45222   0.00000     1   %  0.0000
       2     -60.45224      0.00000        -60.45224  -0.00002     2   %  0.0018
       3     -60.45235      0.00000        -60.45235  -0.00013     3   %  0.0040
       4     -60.45408      0.00000        -60.45408  -0.00187     4   %  0.0140
       5     -60.45775      0.00000        -60.45775  -0.00554     5   %  0.0240
       6     -60.46337      0.00000        -60.46337  -0.01115     6   %  0.0340
       7     -60.47081      0.00000        -60.47081  -0.01859     7   %  0.0441
       8     -60.48012      0.00000        -60.48012  -0.02790     8   %  0.0541
       9     -60.49113      0.00000        -60.49113  -0.03891     9   %  0.0641
      10     -60.50390      0.00000        -60.50390  -0.05168    10   %  0.0741
      11     -60.51832      0.00000        -60.51832  -0.06610    11   %  0.0841
      12     -60.53455      0.00000        -60.53455  -0.01622    12   %  0.0942
      13     -60.54939      0.02799        -60.52140  -0.00307    13   %  0.1030
      14     -60.56285      0.05870        -60.50415   0.01417    14   %  0.1109
      15     -60.57537      0.09617        -60.47921   0.03912    15   %  0.1171
      16     -60.58885      0.13838        -60.45047   0.06785    16   %  0.1236
      17     -60.60308      0.18252        -60.42057   0.09776    17   %  0.1298
      18     -60.61903      0.22679        -60.39223   0.12609    18   %  0.1368
      19     -60.63607      0.27112        -60.36494   0.15338    19   %  0.1436
      20     -60.65472      0.31434        -60.34037   0.17795    20   %  0.1511
      21     -60.67454      0.35649        -60.31805   0.20028    21   %  0.1583
      22     -60.69630      0.39889        -60.29741   0.22091    22   %  0.1666
      23     -60.71952      0.44037        -60.27914   0.23918    23   %  0.1744
      24     -60.74437      0.48143        -60.26294   0.25538    24   %  0.1832
      25     -60.77080      0.52181        -60.24899   0.26934    25   %  0.1915
      26     -60.79893      0.56167        -60.23726   0.28106    26   %  0.2008
      27     -60.82858      0.60107        -60.22751   0.29082    27   %  0.2096
      28     -60.85953      0.63938        -60.22015   0.29818    28   %  0.2192
      29     -60.89213      0.67778        -60.21434   0.30398    29   %  0.2284
      30     -60.92609      0.71568        -60.21041   0.30791    30   %  0.2383
      31     -60.96142      0.75399        -60.20743   0.31089    31   %  0.2479
      32     -60.99786      0.79214        -60.20572   0.31260    32   %  0.2579
      33     -61.03546      0.83102        -60.20443   0.31389    33   %  0.2677
      34     -61.07416      0.87051        -60.20365   0.31467    34   %  0.2779
      35     -61.11348      0.91031        -60.20317   0.31515    35   %  0.2879
      36     -61.15351      0.95065        -60.20287   0.31546    36   %  0.2980
      37     -61.19363      0.99096        -60.20267   0.31565    37   %  0.3079
      38     -61.23480      1.03227        -60.20253   0.31579    38   %  0.3179
      39     -61.27661      1.07418        -60.20243   0.31590    39   %  0.3280
      40     -61.31895      1.11662        -60.20233   0.31599    40   %  0.3381
      41     -61.36102      1.15877        -60.20225   0.31607    41   %  0.3480
      42     -61.40388      1.20169        -60.20218   0.31614    42   %  0.3580
      43     -61.44728      1.24516        -60.20212   0.31620    43   %  0.3680
      44     -61.49088      1.28881        -60.20207   0.31626    44   %  0.3781
      45     -61.53474      1.33272        -60.20202   0.31630    45   %  0.3881
      46     -61.58032      1.37834        -60.20198   0.31634    46   %  0.3985
      47     -61.63167      1.42973        -60.20194   0.31638    47   %  0.4101
      48     -61.69224      1.49033        -60.20190   0.31642    48   %  0.4238
      49     -61.75934      1.55748        -60.20186   0.31646    49   %  0.4389
      50     -61.82663      1.62480        -60.20183   0.31650    50   %  0.4541
      51     -61.89419      1.69238        -60.20181   0.31651    51   %  0.4693
      52     -61.96143      1.75960        -60.20182   0.31650    52   %  0.4846
      53     -62.02806      1.82620        -60.20186   0.31646    53   %  0.4998
      54     -62.09351      1.89160        -60.20192   0.31640    54   %  0.5148
      55     -62.15265      1.95065        -60.20200   0.31632    55   %  0.5286
      56     -62.19743      1.99534        -60.20209   0.31623    56   %  0.5390
      57     -62.23876      2.03660        -60.20215   0.31617    57   %  0.5488
      58     -62.27996      2.07774        -60.20222   0.31611    58   %  0.5586
      59     -62.32049      2.11821        -60.20228   0.31604    59   %  0.5684
      60     -62.36080      2.15840        -60.20240   0.31592    60   %  0.5781
      61     -62.40039      2.19793        -60.20246   0.31586    61   %  0.5879
      62     -62.43940      2.23683        -60.20257   0.31575    62   %  0.5975
      63     -62.47802      2.27534        -60.20267   0.31565    63   %  0.6072
      64     -62.51617      2.31339        -60.20278   0.31555    64   %  0.6169
      65     -62.55400      2.35110        -60.20289   0.31543    65   %  0.6267
      66     -62.59142      2.38844        -60.20298   0.31534    66   %  0.6366
      67     -62.62769      2.42459        -60.20311   0.31522    67   %  0.6462
      68     -62.66342      2.46020        -60.20322   0.31510    68   %  0.6559
      69     -62.69853      2.49519        -60.20334   0.31499    69   %  0.6656
      70     -62.73301      2.52955        -60.20346   0.31486    70   %  0.6753
      71     -62.76714      2.56356        -60.20358   0.31474    71   %  0.6851
      72     -62.80041      2.59670        -60.20371   0.31461    72   %  0.6948
      73     -62.83294      2.62911        -60.20384   0.31449    73   %  0.7045
      74     -62.86442      2.66045        -60.20397   0.31435    74   %  0.7141
      75     -62.89534      2.69124        -60.20410   0.31423    75   %  0.7238
      76     -62.92558      2.72135        -60.20423   0.31409    76   %  0.7335
      77     -62.95538      2.75101        -60.20437   0.31396    77   %  0.7433
      78     -62.98438      2.77987        -60.20451   0.31381    78   %  0.7532
      79     -63.01250      2.80786        -60.20465   0.31368    79   %  0.7629
      80     -63.03938      2.83459        -60.20479   0.31353    80   %  0.7726
      81     -63.06554      2.86063        -60.20492   0.31340    81   %  0.7822
      82     -63.09123      2.88617        -60.20506   0.31327    82   %  0.7921
      83     -63.11597      2.91085        -60.20512   0.31321    83   %  0.8018
      84     -63.13955      2.93444        -60.20511   0.31321    84   %  0.8117
      85     -63.16996      2.96619        -60.20376   0.31456    85   %  0.8244
      86     -63.18923      2.98981        -60.19942   0.31890    86   %  0.8344
      87     -63.20451      3.01892        -60.18559   0.33273    87   %  0.8407
      88     -63.21720      3.05532        -60.16188   0.35644    88   %  0.8493
      89     -63.22856      3.09981        -60.12875   0.38957    89   %  0.8529
      90     -63.23972      3.14493        -60.09479   0.42354    90   %  0.8607
      91     -63.24951      3.19341        -60.05610   0.46223    91   %  0.8638
      92     -63.26002      3.23993        -60.02010   0.49823    92   %  0.8715
      93     -63.26869      3.28805        -59.98065   0.53767    93   %  0.8743
      94     -63.27822      3.33407        -59.94415   0.57417    94   %  0.8817
      95     -63.28571      3.38277        -59.90295   0.61538    95   %  0.8842
      96     -63.29464      3.42958        -59.86506   0.65326    96   %  0.8914
      97     -63.30113      3.47848        -59.82264   0.69568    97   %  0.8936
      98     -63.30933      3.52548        -59.78385   0.73447    98   %  0.9007
      99     -63.31483      3.57505        -59.73978   0.77854    99   %  0.9025
     100     -63.32266      3.62232        -59.70034   0.81798   100   %  0.9094
     101     -63.32723      3.67166        -59.65557   0.86275   101   %  0.9110
     102     -63.33435      3.71978        -59.61457   0.90375   102   %  0.9178
     103     -63.33843      3.76990        -59.56854   0.94978   103   %  0.9191
     104     -63.34491      3.81869        -59.52622   0.99210   104   %  0.9257
     105     -63.34834      3.86974        -59.47860   1.03973   105   %  0.9267
     106     -63.35464      3.91852        -59.43613   1.08219   106   %  0.9331
     107     -63.35728      3.96913        -59.38815   1.13018   107   %  0.9339
     108     -63.36329      4.01768        -59.34560   1.17272   108   %  0.9401
     109     -63.36486      4.06973        -59.29513   1.22319   109   %  0.9408
     110     -63.37137      4.11886        -59.25251   1.26581   110   %  0.9468
     111     -63.37170      4.17134        -59.20036   1.31797   111   %  0.9473
     112     -63.37842      4.22135        -59.15707   1.36125   112   %  0.9532
     113     -63.37840      4.27318        -59.10521   1.41311   113   %  0.9535
     114     -63.38450      4.32318        -59.06132   1.45700   114   %  0.9593
     115     -63.38410      4.37597        -59.00813   1.51019   115   %  0.9594
     116     -63.39015      4.42671        -58.96344   1.55488   116   %  0.9650
     117     -63.38917      4.48022        -58.90895   1.60937   117   %  0.9649
     118     -63.39533      4.53110        -58.86423   1.65410   118   %  0.9704
     119     -63.39422      4.58310        -58.81112   1.70720   119   %  0.9702
     120     -63.39952      4.63391        -58.76561   1.75271   120   %  0.9757
     121     -63.39855      4.68662        -58.71193   1.80639   121   %  0.9753
     122     -63.40367      4.73726        -58.66641   1.85192   122   %  0.9806
     123     -63.40218      4.79021        -58.61196   1.90636   123   %  0.9800
     124     -63.40727      4.84163        -58.56564   1.95268   124   %  0.9853
     125     -63.40566      4.89483        -58.51083   2.00750   125   %  0.9845
     126     -63.41075      4.94545        -58.46531   2.05301   126   %  0.9896
     127     -63.40834      4.99888        -58.40946   2.10886   127   %  0.9888
     128     -63.41392      5.04978        -58.36413   2.15419   128   %  0.9938
     129     -63.41065      5.10398        -58.30667   2.21165   129   %  0.9928
     130     -63.41701      5.15455        -58.26245   2.25587   130   %  0.9977
     131     -63.41300      5.20761        -58.20539   2.31293   131   %  0.9967
     132     -63.41929      5.25858        -58.16071   2.35761   132   %  1.0015
     133     -63.41547      5.31143        -58.10405   2.41428   133   %  1.0004
     134     -63.42120      5.36289        -58.05831   2.46001   134   %  1.0052
     135     -63.41738      5.41703        -58.00035   2.51797   135   %  1.0039
     136     -63.42325      5.46884        -57.95441   2.56391   136   %  1.0085
     137     -63.41900      5.52328        -57.89572   2.62260   137   %  1.0072
     138     -63.42500      5.57555        -57.84945   2.66888   138   %  1.0118
     139     -63.42068      5.62994        -57.79074   2.72758   139   %  1.0103
     140     -63.42667      5.68170        -57.74497   2.77335   140   %  1.0148
     141     -63.42224      5.73529        -57.68695   2.83137   141   %  1.0133
     142     -63.42799      5.78693        -57.64106   2.87726   142   %  1.0178
     143     -63.42328      5.84153        -57.58175   2.93657   143   %  1.0161
     144     -63.42966      5.89262        -57.53705   2.98128   144   %  1.0204
     145     -63.42444      5.94577        -57.47867   3.03965   145   %  1.0188
     146     -63.43065      5.99698        -57.43367   3.08465   146   %  1.0231
     147     -63.42560      6.05042        -57.37518   3.14314   147   %  1.0213
     148     -63.43178      6.10125        -57.33053   3.18779   148   %  1.0256
     149     -63.42611      6.15544        -57.27067   3.24765   149   %  1.0237
     150     -63.43297      6.20646        -57.22651   3.29181   150   %  1.0279
     151     -63.42663      6.26073        -57.16590   3.35242   151   %  1.0260
     152     -63.43378      6.31264        -57.12114   3.39718   152   %  1.0302
     153     -63.42731      6.36756        -57.05975   3.45857   153   %  1.0282
     154     -63.43468      6.41931        -57.01537   3.50296   154   %  1.0323
     155     -63.42756      6.47484        -56.95272   3.56561   155   %  1.0302
     156     -63.43563      6.52657        -56.90906   3.60927   156   %  1.0342
     157     -63.42776      6.58218        -56.84558   3.67274   157   %  1.0322
     158     -63.43652      6.63351        -56.80301   3.71532   158   %  1.0361
     159     -63.42772      6.68945        -56.73826   3.78006   159   %  1.0340
     160     -63.43727      6.74121        -56.69606   3.82226   160   %  1.0379
     161     -63.42759      6.79806        -56.62953   3.88879   161   %  1.0358
     162     -63.43808      6.84983        -56.58825   3.93007   162   %  1.0396
     163     -63.42779      6.90600        -56.52179   3.99653   163   %  1.0374
     164     -63.43845      6.95838        -56.48007   4.03825   164   %  1.0413
     165     -63.42857      7.01407        -56.41449   4.10383   165   %  1.0391
     166     -63.43867      7.06661        -56.37205   4.14627   166   %  1.0429
     167     -63.42955      7.12161        -56.30794   4.21038   167   %  1.0407
     168     -63.43878      7.17391        -56.26488   4.25345   168   %  1.0445
     169     -63.43036      7.22862        -56.20174   4.31658   169   %  1.0422
     170     -63.43915      7.27969        -56.15946   4.35886   170   %  1.0459
     171     -63.42990      7.33578        -56.09412   4.42421   171   %  1.0435
     172     -63.43957      7.38837        -56.05119   4.46713   172   %  1.0472
     173     -63.42984      7.44534        -55.98451   4.53381   173   %  1.0448
     174     -63.44000      7.49795        -55.94206   4.57627   174   %  1.0485
     175     -63.43048      7.55320        -55.87728   4.64104   175   %  1.0461
     176     -63.44020      7.60453        -55.83566   4.68266   176   %  1.0497
     177     -63.42997      7.66128        -55.76869   4.74963   177   %  1.0472
     178     -63.44056      7.71401        -55.72655   4.79177   178   %  1.0508
     179     -63.43009      7.77083        -55.65926   4.85906   179   %  1.0483
     180     -63.44089      7.82287        -55.61802   4.90031   180   %  1.0519
     181     -63.43032      7.87870        -55.55162   4.96670   181   %  1.0494
     182     -63.44094      7.93094        -55.51000   5.00832   182   %  1.0530
     183     -63.43084      7.98639        -55.44445   5.07387   183   %  1.0504
     184     -63.44087      8.03903        -55.40184   5.11648   184   %  1.0540
     185     -63.43159      8.09408        -55.33752   5.18081   185   %  1.0514
     186     -63.44080      8.14636        -55.29444   5.22388   186   %  1.0550
     187     -63.43144      8.20285        -55.22859   5.28973   187   %  1.0523
     188     -63.44124      8.25478        -55.18646   5.33187   188   %  1.0558
     189     -63.43071      8.31207        -55.11864   5.39968   189   %  1.0531
     190     -63.44151      8.36501        -55.07651   5.44182   190   %  1.0566
     191     -63.43108      8.42123        -55.00985   5.50848   191   %  1.0540
     192     -63.44171      8.47268        -54.96903   5.54929   192   %  1.0574
     193     -63.43089      8.52865        -54.90224   5.61609   193   %  1.0547
     194     -63.44188      8.58018        -54.86170   5.65662   194   %  1.0582
     195     -63.43005      8.63801        -54.79204   5.72629   195   %  1.0554
     196     -63.44223      8.69051        -54.75172   5.76660   196   %  1.0588
     197     -63.43021      8.74724        -54.68297   5.83535   197   %  1.0561
     198     -63.44232      8.79881        -54.64351   5.87481   198   %  1.0595
     199     -63.42962      8.85658        -54.57304   5.94528   199   %  1.0567
     200     -63.44254      8.90897        -54.53356   5.98476   200   %  1.0601
     201     -63.42941      8.96694        -54.46246   6.05586   201   %  1.0573
     202     -63.44263      9.01953        -54.42310   6.09522   202   %  1.0607
     203     -63.42938      9.07748        -54.35190   6.16642   203   %  1.0580
     204     -63.44269      9.13019        -54.31250   6.20582   204   %  1.0613
     205     -63.42940      9.18820        -54.24120   6.27712   205   %  1.0585
     206     -63.44275      9.24093        -54.20181   6.31651   206   %  1.0619
     207     -63.42949      9.29879        -54.13070   6.38762   207   %  1.0591
     208     -63.44279      9.35138        -54.09141   6.42691   208   %  1.0625
     209     -63.42946      9.40934        -54.02012   6.49820   209   %  1.0596
     210     -63.44281      9.46220        -53.98062   6.53771   210   %  1.0630
     211     -63.42951      9.52027        -53.90924   6.60908   211   %  1.0601
     212     -63.44287      9.57294        -53.86993   6.64839   212   %  1.0635
     213     -63.42967      9.63052        -53.79914   6.71918   213   %  1.0606
     214     -63.44288      9.68295        -53.75993   6.75839   214   %  1.0639
     215     -63.42942      9.74122        -53.68820   6.83012   215   %  1.0610
     216     -63.44289      9.79455        -53.64834   6.86998   216   %  1.0644
     217     -63.42970      9.85258        -53.57712   6.94120   217   %  1.0615
     218     -63.44300      9.90472        -53.53829   6.98004   218   %  1.0648
     219     -63.42874      9.96424        -53.46450   7.05382   219   %  1.0618
     220     -63.44332     10.01659        -53.42673   7.09160   220   %  1.0651
     221     -63.42783     10.07670        -53.35113   7.16719   221   %  1.0621
     222     -63.44347     10.12962        -53.31385   7.20447   222   %  1.0654
     223     -63.42800     10.18856        -53.23944   7.27888   223   %  1.0625
     224     -63.44348     10.24073        -53.20275   7.31558   224   %  1.0658
     225     -63.42738     10.30078        -53.12660   7.39172   225   %  1.0628
     226     -63.44362     10.35345        -53.09017   7.42816   226   %  1.0661
     227     -63.42723     10.41324        -53.01399   7.50433   227   %  1.0632
     228     -63.44362     10.46598        -52.97764   7.54068   228   %  1.0664
     229     -63.42672     10.52687        -52.89985   7.61847   229   %  1.0635
     230     -63.44365     10.58085        -52.86279   7.65553   230   %  1.0667
     231     -63.42724     10.64089        -52.78635   7.73197   231   %  1.0638
     232     -63.44356     10.69447        -52.74908   7.76924   232   %  1.0671
     233     -63.42762     10.75420        -52.67342   7.84491   233   %  1.0641
     234     -63.44357     10.80716        -52.63640   7.88192   234   %  1.0674
     235     -63.42783     10.86629        -52.56154   7.95678   235   %  1.0644
     236     -63.44353     10.91905        -52.52448   7.99384   236   %  1.0677
     237     -63.42742     10.97931        -52.44811   8.07021   237   %  1.0647
     238     -63.44355     11.03322        -52.41033   8.10800   238   %  1.0679
     239     -63.42799     11.09257        -52.33542   8.18290   239   %  1.0650
     240     -63.44344     11.14599        -52.29745   8.22087   240   %  1.0682
     241     -63.42832     11.20510        -52.22322   8.29510   241   %  1.0652
     242     -63.44344     11.25802        -52.18543   8.33289   242   %  1.0685
     243     -63.42853     11.31660        -52.11193   8.40639   243   %  1.0655
     244     -63.44341     11.36925        -52.07416   8.44416   244   %  1.0687
     245     -63.42821     11.42871        -51.99949   8.51883   245   %  1.0657
     246     -63.44342     11.48236        -51.96106   8.55726   246   %  1.0689
     247     -63.42860     11.54129        -51.88731   8.63101   247   %  1.0659
     248     -63.44349     11.59341        -51.85008   8.66825   248   %  1.0691
     249     -63.42744     11.65412        -51.77332   8.74500   249   %  1.0660
     250     -63.44372     11.70697        -51.73675   8.78157   250   %  1.0692
     251     -63.42649     11.76857        -51.65792   8.86040   251   %  1.0661
     252     -63.44386     11.82170        -51.62216   8.89616   252   %  1.0693
     253     -63.42564     11.88413        -51.54152   8.97681   253   %  1.0662
     254     -63.44396     11.93760        -51.50636   9.01197   254   %  1.0694
     255     -63.42491     12.00075        -51.42416   9.09417   255   %  1.0664
     256     -63.44405     12.05423        -51.38982   9.12850   256   %  1.0695
     257     -63.42419     12.11795        -51.30624   9.21209   257   %  1.0665
     258     -63.44411     12.17156        -51.27254   9.24578   258   %  1.0696
     259     -63.42319     12.23662        -51.18658   9.33175   259   %  1.0666
     260     -63.44416     12.29085        -51.15331   9.36501   260   %  1.0697
     261     -63.42271     12.35619        -51.06652   9.45181   261   %  1.0667
     262     -63.44415     12.41114        -51.03301   9.48531   262   %  1.0699
     263     -63.42214     12.47773        -50.94441   9.57391   263   %  1.0668
     264     -63.44420     12.53207        -50.91213   9.60619   264   %  1.0699
     265     -63.42105     12.59976        -50.82128   9.69704   265   %  1.0669
     266     -63.44419     12.65520        -50.78899   9.72933   266   %  1.0701
     267     -63.42089     12.72284        -50.69805   9.82028   267   %  1.0671
     268     -63.44419     12.77807        -50.66612   9.85221   268   %  1.0702
     269     -63.42099     12.84516        -50.57583   9.94249   269   %  1.0672
     270     -63.44418     12.90032        -50.54386   9.97446   270   %  1.0704
     271     -63.42033     12.96886        -50.45147  10.06685   271   %  1.0673
     272     -63.44417     13.02392        -50.42025  10.09807   272   %  1.0704
     273     -63.41915     13.09411        -50.32504  10.19328   273   %  1.0674
     274     -63.44415     13.15008        -50.29407  10.22425   274   %  1.0705
     275     -63.41785     13.22240        -50.19545  10.32288   275   %  1.0674
     276     -63.44408     13.27899        -50.16509  10.35323   276   %  1.0706
     277     -63.41804     13.35014        -50.06790  10.45043   277   %  1.0676
     278     -63.44409     13.40617        -50.03792  10.48041   278   %  1.0707
     279     -63.41775     13.47762        -49.94013  10.57819   279   %  1.0677
     280     -63.44408     13.53446        -49.90962  10.60871   280   %  1.0708
     281     -63.41838     13.60489        -49.81349  10.70483   281   %  1.0679
     282     -63.44407     13.66016        -49.78391  10.73442   282   %  1.0710
     283     -63.41817     13.73053        -49.68764  10.83068   283   %  1.0680
     284     -63.44408     13.78695        -49.65713  10.86119   284   %  1.0711
     285     -63.41720     13.85984        -49.55736  10.96096   285   %  1.0680
     286     -63.44404     13.91742        -49.52662  10.99171   286   %  1.0712
     287     -63.41615     13.99250        -49.42365  11.09467   287   %  1.0681
     288     -63.44393     14.05001        -49.39393  11.12440   288   %  1.0712
     289     -63.41583     14.12482        -49.29101  11.22732   289   %  1.0682
     290     -63.44387     14.18164        -49.26224  11.25609   290   %  1.0713
     291     -63.41530     14.25670        -49.15859  11.35973   291   %  1.0682
     292     -63.44380     14.31346        -49.13034  11.38798   292   %  1.0713
     293     -63.41406     14.39054        -49.02352  11.49480   293   %  1.0683
     294     -63.44366     14.44808        -48.99558  11.52274   294   %  1.0714
     295     -63.41374     14.52541        -48.88833  11.62999   295   %  1.0684
     296     -63.44366     14.58321        -48.86045  11.65788   296   %  1.0715
     297     -63.41254     14.66275        -48.74978  11.76854   297   %  1.0684
     298     -63.44344     14.72104        -48.72240  11.79592   298   %  1.0715
     299     -63.41161     14.80219        -48.60942  11.90891   299   %  1.0684
     300     -63.44329     14.86047        -48.58282  11.93550   300   %  1.0715
     301     -63.40954     14.94508        -48.46446  12.05386   301   %  1.0684
     302     -63.44304     15.00535        -48.43770  12.08063   302   %  1.0715


           POTENTIAL ENERGY HAS STOPPED DROPPING


 **********************
 *                    *
 * JOB ENDED NORMALLY *
 *                    *
 **********************



 TOTAL JOB TIME:             0.15 SECONDS

 == MOPAC DONE ==
