 *******************************************************************************
 ** Site#:  999         For non-commercial use only           Version 21.129  **
 *******************************************************************************
 ** Cite this program as: MOPAC2016, Version: 21.129 , James J. P. Stewart,   **
 ** Stewart Computational Chemistry, web-site: HTTP://OpenMOPAC.net.          **
 *******************************************************************************
 **                                                                           **
 **                                MOPAC2016                                  **
 **                                                                           **
 *******************************************************************************

                              PM7 CALCULATION RESULTS

 *******************************************************************************
 *  CALCULATION DONE:                                Sun Nov 20 12:23:43 2022  *
 *  PM7        - The PM7 Hamiltonian to be used
 *
 *
 *
 *                 CHARGE ON SYSTEM = 0
 *
 *
 *
 *  IRC=N      - INTRINSIC REACTION COORDINATE  1 DEFINED
 *  PRECISE    - TIGHTER CRITERIA TO BE USED
 *  THREADS=1  - MULTI-THREADING NOT USED
 *  T=         - A TIME OF 172800.0 SECONDS REQUESTED
 *  DUMP=N     - RESTART FILE WRITTEN EVERY 7200.0 SECONDS REQUESTED
 *  CYCLES=    - DO A MAXIMUM OF 5000 STEPS
 *  OLDENS     - INITIAL DENSITY MATRIX READ OFF DISK
 *******************************************************************************
   pm7 threads=1 charge=0 irc= 1 oldens precise cycles=5000
 title
 title
   ATOM   CHEMICAL          X               Y               Z
  NUMBER   SYMBOL      (ANGSTROMS)     (ANGSTROMS)     (ANGSTROMS)
 
     1       C          0.00000000  *   0.00000000  *   0.00000000  *
     2       O          1.33754461  *   0.00000000  *   0.00000000  *
     3       O         -0.42198498  *   1.24984250  *   0.00000000  *
     4       H          1.80413358  *  -0.81932481  *   0.18613299  *
     5       H         -0.89985599  *   1.73153508  *  -0.64322291  *
 


          CARTESIAN COORDINATES 

    NO.       ATOM           X           Y           Z

     1         C          0.0000      0.0000      0.0000
     2         O          1.3375      0.0000      0.0000
     3         O         -0.4220      1.2498      0.0000
     4         H          1.8041     -0.8193      0.1861
     5         H         -0.8999      1.7315     -0.6432

 General Reference for PM7:
 "Optimization of Parameters for Semiempirical Methods VI: More Modifications to the 
 NDDO Approximations and Re-optimization of Parameters", J. J. P. Stewart, J. Mol. Mod., 1:32, 19 (2013)
 https://link.springer.com/article/10.1007/s00894-012-1667-x

           Empirical Formula: C H2 O2  =     5 atoms



      MOLECULAR POINT GROUP   :   C1  


      RHF CALCULATION, NO. OF DOUBLY OCCUPIED LEVELS = 9



          HEAT OF FORMATION =     -60.452218 KCALS/MOLE


          GRADIENT NORM =   0.02328

          MOLECULAR WEIGHT =   46.03


          ESTIMATED TIME TO COMPLETE CALCULATION =        0.00 SECONDS

    FOR POINT-GROUP C1   THERE ARE   1 UNIQUE SYMMETRY FUNCTIONS.

 STEP:   1 TIME =     0.00 SECS, INTEGRAL =      0.00 TIME LEFT: 172800.00
 STEP:   2 TIME =     0.00 SECS, INTEGRAL =      0.00 TIME LEFT: 172800.00
 STEP:   3 TIME =     0.00 SECS, INTEGRAL =      0.01 TIME LEFT: 172799.99
 STEP:   4 TIME =     0.00 SECS, INTEGRAL =      0.01 TIME LEFT: 172799.99
 STEP:   5 TIME =     0.00 SECS, INTEGRAL =      0.01 TIME LEFT: 172799.99
 STEP:   6 TIME =     0.00 SECS, INTEGRAL =      0.01 TIME LEFT: 172799.99
 STEP:   7 TIME =     0.00 SECS, INTEGRAL =      0.02 TIME LEFT: 172799.98
 STEP:   8 TIME =     0.00 SECS, INTEGRAL =      0.02 TIME LEFT: 172799.98
 STEP:   9 TIME =     0.00 SECS, INTEGRAL =      0.02 TIME LEFT: 172799.98
 STEP:  10 TIME =     0.00 SECS, INTEGRAL =      0.02 TIME LEFT: 172799.98
 STEP:  11 TIME =     0.00 SECS, INTEGRAL =      0.02 TIME LEFT: 172799.98
 STEP:  12 TIME =     0.00 SECS, INTEGRAL =      0.03 TIME LEFT: 172799.97
 STEP:  13 TIME =     0.00 SECS, INTEGRAL =      0.03 TIME LEFT: 172799.97
 STEP:  14 TIME =     0.00 SECS, INTEGRAL =      0.03 TIME LEFT: 172799.97
 STEP:  15 TIME =     0.00 SECS, INTEGRAL =      0.04 TIME LEFT: 172799.96
  Stopping critera: r_ij>5*r_ij(0)
 
           INITIAL VELOCITY IN DRC (Angstroms/Femtosecond)
         0.00666         0.01839         0.04787
         0.00882        -0.00028        -0.02501
        -0.05841        -0.04129        -0.00050
         0.04386         0.02982        -0.01481
         0.66392         0.41083        -0.15065
 
  Deltat    =   0.24 fs
  Maxcyc    =      5000
  Jloop_lim =      5000
 
  Initial distance matrix
  Bond#     i     j    Ini_value(A)
      1     1     2          1.338
      2     1     3          1.319
      3     1     4          1.990
      4     1     5          2.055
      5     2     3          2.158
      6     2     4          0.961
      7     2     5          2.901
      8     3     4          3.045
      9     3     5          0.935
     10     4     5          3.809
 
 


     POINT   POTENTIAL  +  ENERGY LOST   =   TOTAL      ERROR    REF%   MOVEMENT
       1     -60.45222      0.00000        -60.45222   0.00000     1   %  0.0000
       2     -60.45226      0.00000        -60.45226  -0.00004     2   %  0.0018
       3     -60.45238      0.00000        -60.45238  -0.00016     3   %  0.0037
       4     -60.45420      0.00000        -60.45420  -0.00198     4   %  0.0137
       5     -60.45808      0.00000        -60.45808  -0.00587     5   %  0.0238
       6     -60.46400      0.00000        -60.46400  -0.01178     6   %  0.0338
       7     -60.47200      0.00000        -60.47200  -0.01978     7   %  0.0438
       8     -60.48208      0.00000        -60.48208  -0.02986     8   %  0.0538
       9     -60.49432      0.00000        -60.49432  -0.04210     9   %  0.0638
      10     -60.50867      0.00000        -60.50867  -0.05645    10   %  0.0738
      11     -60.52519      0.00000        -60.52519  -0.01652    11   %  0.0839
      12     -60.54154      0.03255        -60.50899  -0.00032    12   %  0.0928
      13     -60.55752      0.06284        -60.49468   0.01399    13   %  0.1010
      14     -60.57327      0.09953        -60.47374   0.03493    14   %  0.1081
      15     -60.59059      0.14084        -60.44975   0.05892    15   %  0.1153
      16     -60.60965      0.18467        -60.42498   0.08369    16   %  0.1224
      17     -60.63132      0.22771        -60.40361   0.10506    17   %  0.1302
      18     -60.65569      0.27058        -60.38512   0.12355    18   %  0.1381
      19     -60.68295      0.31222        -60.37072   0.13795    19   %  0.1468
      20     -60.71336      0.35363        -60.35973   0.14894    20   %  0.1556
      21     -60.74685      0.39466        -60.35219   0.15648    21   %  0.1650
      22     -60.78377      0.43644        -60.34732   0.16135    22   %  0.1745
      23     -60.82391      0.47962        -60.34429   0.16438    23   %  0.1845
      24     -60.86687      0.52418        -60.34270   0.16597    24   %  0.1945
      25     -60.91201      0.57011        -60.34189   0.16678    25   %  0.2045
      26     -60.95933      0.61794        -60.34139   0.16728    26   %  0.2144
      27     -61.00958      0.66858        -60.34100   0.16767    27   %  0.2245
      28     -61.06179      0.72117        -60.34062   0.16805    28   %  0.2344
      29     -61.11641      0.77617        -60.34024   0.16843    29   %  0.2444
      30     -61.17394      0.83408        -60.33986   0.16881    30   %  0.2545
      31     -61.23308      0.89360        -60.33948   0.16919    31   %  0.2644
      32     -61.29538      0.95628        -60.33910   0.16957    32   %  0.2744
      33     -61.35914      1.02042        -60.33872   0.16995    33   %  0.2843
      34     -61.42594      1.08759        -60.33835   0.17032    34   %  0.2943
      35     -61.49551      1.15754        -60.33797   0.17070    35   %  0.3043
      36     -61.56723      1.22964        -60.33759   0.17108    36   %  0.3143
      37     -61.64074      1.30353        -60.33722   0.17145    37   %  0.3243
      38     -61.71640      1.37955        -60.33685   0.17182    38   %  0.3342
      39     -61.79505      1.45856        -60.33649   0.17218    39   %  0.3442
      40     -61.87574      1.53961        -60.33613   0.17254    40   %  0.3541
      41     -61.95814      1.62236        -60.33578   0.17289    41   %  0.3640
      42     -62.04290      1.70747        -60.33543   0.17324    42   %  0.3740
      43     -62.12950      1.79441        -60.33509   0.17358    43   %  0.3838
      44     -62.21842      1.88366        -60.33476   0.17391    44   %  0.3937
      45     -62.30894      1.97450        -60.33444   0.17423    45   %  0.4036
      46     -62.40167      2.06755        -60.33412   0.17454    46   %  0.4134
      47     -62.49612      2.16230        -60.33382   0.17485    47   %  0.4232
      48     -62.59309      2.25957        -60.33352   0.17515    48   %  0.4331
      49     -62.69201      2.35879        -60.33322   0.17545    49   %  0.4429
      50     -62.79347      2.46054        -60.33293   0.17574    50   %  0.4528
      51     -62.89662      2.56397        -60.33265   0.17602    51   %  0.4627
      52     -63.00210      2.66972        -60.33237   0.17630    52   %  0.4726
      53     -63.10931      2.77721        -60.33210   0.17657    53   %  0.4825
      54     -63.21707      2.88523        -60.33184   0.17683    54   %  0.4923
      55     -63.32682      2.99523        -60.33159   0.17708    55   %  0.5021
      56     -63.43921      3.10785        -60.33135   0.17732    56   %  0.5120
      57     -63.55134      3.22023        -60.33112   0.17755    57   %  0.5218
      58     -63.66619      3.33530        -60.33089   0.17778    58   %  0.5316
      59     -63.78292      3.45224        -60.33068   0.17799    59   %  0.5414
      60     -63.89957      3.56917        -60.33041   0.17826    60   %  0.5511
      61     -64.01725      3.68700        -60.33025   0.17842    61   %  0.5608
      62     -64.13647      3.80641        -60.33005   0.17862    62   %  0.5705
      63     -64.25763      3.92776        -60.32987   0.17880    63   %  0.5802
      64     -64.38113      4.05143        -60.32970   0.17897    64   %  0.5900
      65     -64.50430      4.17477        -60.32953   0.17913    65   %  0.5997
      66     -64.62917      4.29979        -60.32938   0.17929    66   %  0.6095
      67     -64.75557      4.42633        -60.32924   0.17943    67   %  0.6192
      68     -64.88199      4.55289        -60.32910   0.17957    68   %  0.6289
      69     -65.00955      4.68058        -60.32897   0.17970    69   %  0.6386
      70     -65.13864      4.80978        -60.32886   0.17981    70   %  0.6483
      71     -65.26670      4.93795        -60.32875   0.17992    71   %  0.6579
      72     -65.39625      5.06759        -60.32866   0.18001    72   %  0.6676
      73     -65.52750      5.19892        -60.32858   0.18009    73   %  0.6773
      74     -65.65714      5.32864        -60.32850   0.18017    74   %  0.6868
      75     -65.78738      5.45895        -60.32844   0.18023    75   %  0.6964
      76     -65.91931      5.59092        -60.32839   0.18028    76   %  0.7060
      77     -66.05241      5.72407        -60.32834   0.18033    77   %  0.7157
      78     -66.19869      5.87037        -60.32831   0.18036    78   %  0.7263
      79     -66.38230      6.05402        -60.32829   0.18038    79   %  0.7395
      80     -66.58364      6.25538        -60.32826   0.18041    80   %  0.7540
      81     -66.78670      6.45845        -60.32825   0.18042    81   %  0.7686
      82     -66.99022      6.66195        -60.32827   0.18040    82   %  0.7833
      83     -67.19370      6.86537        -60.32834   0.18033    83   %  0.7979
      84     -67.37356      7.04511        -60.32845   0.18022    84   %  0.8109
      85     -67.50608      7.17751        -60.32857   0.18010    85   %  0.8204
      86     -67.63668      7.30803        -60.32866   0.18001    86   %  0.8299
      87     -67.76581      7.43704        -60.32876   0.17991    87   %  0.8393
      88     -67.89428      7.56540        -60.32888   0.17979    88   %  0.8486
      89     -68.02349      7.69449        -60.32901   0.17966    89   %  0.8581
      90     -68.15236      7.82322        -60.32915   0.17952    90   %  0.8676
      91     -68.27886      7.94956        -60.32930   0.17937    91   %  0.8769
      92     -68.40501      8.07554        -60.32947   0.17920    92   %  0.8863
      93     -68.53010      8.20046        -60.32964   0.17903    93   %  0.8957
      94     -68.65404      8.32421        -60.32983   0.17884    94   %  0.9051
      95     -68.77776      8.44773        -60.33003   0.17864    95   %  0.9145
      96     -68.90000      8.56976        -60.33024   0.17843    96   %  0.9239
      97     -69.02117      8.69070        -60.33046   0.17821    97   %  0.9332
      98     -69.14062      8.80992        -60.33070   0.17797    98   %  0.9426
      99     -69.25746      8.92652        -60.33094   0.17772    99   %  0.9518
     100     -69.37384      9.04264        -60.33120   0.17747   100   %  0.9611
     101     -69.48822      9.15675        -60.33146   0.17721   101   %  0.9704
     102     -69.60162      9.26989        -60.33174   0.17693   102   %  0.9796
     103     -69.71437      9.38235        -60.33203   0.17664   103   %  0.9890
     104     -69.82362      9.49129        -60.33233   0.17634   104   %  0.9982
     105     -69.93290      9.60027        -60.33264   0.17603   105   %  1.0075
     106     -70.03973      9.70677        -60.33296   0.17571   106   %  1.0168
     107     -70.14473      9.81143        -60.33329   0.17538   107   %  1.0260
     108     -70.24673      9.91309        -60.33364   0.17503   108   %  1.0352
     109     -70.34813     10.01414        -60.33398   0.17469   109   %  1.0444
     110     -70.44633     10.11198        -60.33435   0.17432   110   %  1.0536
     111     -70.54255     10.20783        -60.33471   0.17396   111   %  1.0627
     112     -70.63836     10.30327        -60.33509   0.17358   112   %  1.0720
     113     -70.73043     10.39495        -60.33548   0.17319   113   %  1.0811
     114     -70.82033     10.48459        -60.33573   0.17294   114   %  1.0902
     115     -70.90837     10.57233        -60.33604   0.17263   115   %  1.0994
     116     -70.99459     10.65823        -60.33636   0.17231   116   %  1.1085
     117     -71.07834     10.74165        -60.33669   0.17198   117   %  1.1177
     118     -71.15953     10.82250        -60.33703   0.17164   118   %  1.1268
     119     -71.23874     10.90137        -60.33738   0.17129   119   %  1.1360
     120     -71.31514     10.97740        -60.33774   0.17093   120   %  1.1451
     121     -71.38887     11.05077        -60.33810   0.17057   121   %  1.1542
     122     -71.46077     11.12230        -60.33847   0.17020   122   %  1.1634
     123     -71.53022     11.19137        -60.33885   0.16982   123   %  1.1725
     124     -71.59714     11.25790        -60.33924   0.16943   124   %  1.1817
     125     -71.66193     11.32230        -60.33964   0.16903   125   %  1.1909
     126     -71.72382     11.38377        -60.34005   0.16862   126   %  1.2001
     127     -71.78292     11.44246        -60.34046   0.16821   127   %  1.2093
     128     -71.83993     11.49906        -60.34088   0.16779   128   %  1.2185
     129     -71.89437     11.55306        -60.34131   0.16736   129   %  1.2278
     130     -71.94615     11.60439        -60.34175   0.16692   130   %  1.2371
     131     -71.99460     11.65239        -60.34220   0.16647   131   %  1.2463
     132     -72.04107     11.69842        -60.34265   0.16602   132   %  1.2557
     133     -72.08461     11.74150        -60.34311   0.16556   133   %  1.2650
     134     -72.12580     11.78222        -60.34358   0.16509   134   %  1.2745
     135     -72.16420     11.82013        -60.34407   0.16460   135   %  1.2839
     136     -72.19975     11.85519        -60.34456   0.16411   136   %  1.2934
     137     -72.23270     11.88764        -60.34506   0.16361   137   %  1.3029
     138     -72.26322     11.91765        -60.34557   0.16310   138   %  1.3126
     139     -72.29069     11.94459        -60.34610   0.16257   139   %  1.3222
     140     -72.31599     11.96936        -60.34663   0.16204   140   %  1.3322
     141     -72.33868     11.99149        -60.34719   0.16148   141   %  1.3422
     142     -72.35862     12.01085        -60.34777   0.16090   142   %  1.3524
     143     -72.37596     12.02768        -60.34828   0.16039   143   %  1.3625
     144     -72.38956     12.04247        -60.34709   0.16158   144   %  1.3739
     145     -72.38969     12.06123        -60.32846   0.18021   145   %  1.3765
     146     -72.39735     12.10209        -60.29526   0.21341   146   %  1.3831
     147     -72.39479     12.15157        -60.24322   0.26545   147   %  1.3814
     148     -72.40162     12.20347        -60.19815   0.31052   148   %  1.3879
     149     -72.39964     12.25524        -60.14439   0.36428   149   %  1.3860
     150     -72.40505     12.30668        -60.09837   0.41030   150   %  1.3923
     151     -72.40361     12.35797        -60.04564   0.46303   151   %  1.3901
     152     -72.40784     12.40933        -59.99851   0.51016   152   %  1.3962
     153     -72.40698     12.45990        -59.94708   0.56159   153   %  1.3938
     154     -72.41012     12.51051        -59.89961   0.60906   154   %  1.3996
     155     -72.40967     12.56034        -59.84934   0.65933   155   %  1.3971
     156     -72.41171     12.61136        -59.80034   0.70833   156   %  1.4028
     157     -72.41186     12.66185        -59.75001   0.75866   157   %  1.4001
     158     -72.41317     12.71318        -59.69999   0.80868   158   %  1.4056
     159     -72.41357     12.76396        -59.64961   0.85906   159   %  1.4028
     160     -72.41416     12.81635        -59.59781   0.91086   160   %  1.4082
     161     -72.41536     12.86705        -59.54831   0.96036   161   %  1.4053
     162     -72.41524     12.91831        -59.49693   1.01174   162   %  1.4105
     163     -72.41638     12.96898        -59.44740   1.06127   163   %  1.4075
     164     -72.41588     13.02144        -59.39444   1.11423   164   %  1.4126
     165     -72.41777     13.07188        -59.34590   1.16277   165   %  1.4096
     166     -72.41607     13.12475        -59.29132   1.21735   166   %  1.4146
     167     -72.41880     13.17594        -59.24286   1.26581   167   %  1.4115
     168     -72.41695     13.22768        -59.18927   1.31940   168   %  1.4162
     169     -72.41964     13.27722        -59.14242   1.36625   169   %  1.4132
     170     -72.41730     13.32837        -59.08893   1.41974   170   %  1.4178
     171     -72.42025     13.37801        -59.04225   1.46642   171   %  1.4148
     172     -72.41706     13.43103        -58.98604   1.52263   172   %  1.4193
     173     -72.42112     13.48163        -58.93948   1.56918   173   %  1.4163
     174     -72.41688     13.53538        -58.88150   1.62717   174   %  1.4206
     175     -72.42197     13.58573        -58.83624   1.67243   175   %  1.4176
     176     -72.41690     13.63872        -58.77818   1.73049   176   %  1.4218
     177     -72.42255     13.68849        -58.73406   1.77461   177   %  1.4189
     178     -72.41630     13.74274        -58.67356   1.83511   178   %  1.4230
     179     -72.42302     13.79416        -58.62886   1.87981   179   %  1.4200
     180     -72.41631     13.84891        -58.56740   1.94127   180   %  1.4240
     181     -72.42347     13.90002        -58.52345   1.98522   181   %  1.4211
     182     -72.41591     13.95541        -58.46050   2.04817   182   %  1.4249
     183     -72.42389     14.00708        -58.41681   2.09186   183   %  1.4221
     184     -72.41646     14.06083        -58.35563   2.15304   184   %  1.4257
     185     -72.42412     14.11074        -58.31338   2.19529   185   %  1.4229
     186     -72.41609     14.16493        -58.25116   2.25751   186   %  1.4265
     187     -72.42432     14.21594        -58.20838   2.30029   187   %  1.4237
     188     -72.41564     14.27173        -58.14390   2.36477   188   %  1.4272
     189     -72.42491     14.32226        -58.10265   2.40602   189   %  1.4246
     190     -72.41504     14.37781        -58.03723   2.47144   190   %  1.4279
     191     -72.42511     14.42902        -57.99608   2.51258   191   %  1.4253
     192     -72.41485     14.48495        -57.92990   2.57877   192   %  1.4285
     193     -72.42526     14.53651        -57.88876   2.61991   193   %  1.4259
     194     -72.41516     14.59163        -57.82353   2.68514   194   %  1.4290
     195     -72.42535     14.64228        -57.78307   2.72560   195   %  1.4265
     196     -72.41493     14.69771        -57.71721   2.79146   196   %  1.4295
     197     -72.42559     14.74819        -57.67739   2.83127   197   %  1.4271
     198     -72.41450     14.80397        -57.61054   2.89813   198   %  1.4299
     199     -72.42584     14.85429        -57.57155   2.93712   199   %  1.4276
     200     -72.41392     14.91053        -57.50340   3.00527   200   %  1.4304
     201     -72.42607     14.96108        -57.46499   3.04368   201   %  1.4281
     202     -72.41331     15.01800        -57.39531   3.11336   202   %  1.4308
     203     -72.42631     15.06862        -57.35769   3.15098   203   %  1.4286
     204     -72.41286     15.12561        -57.28725   3.22142   204   %  1.4312
     205     -72.42628     15.17741        -57.24887   3.25980   205   %  1.4290
     206     -72.41242     15.23601        -57.17641   3.33226   206   %  1.4316
     207     -72.42643     15.28843        -57.13800   3.37067   207   %  1.4294
     208     -72.41237     15.34679        -57.06558   3.44309   208   %  1.4319
     209     -72.42645     15.39908        -57.02737   3.48130   209   %  1.4298
     210     -72.41197     15.45827        -56.95371   3.55496   210   %  1.4322
     211     -72.42666     15.51019        -56.91647   3.59220   211   %  1.4302
     212     -72.41189     15.56840        -56.84349   3.66518   212   %  1.4324
     213     -72.42677     15.61921        -56.80756   3.70111   213   %  1.4305
     214     -72.41156     15.67713        -56.73443   3.77424   214   %  1.4327
     215     -72.42686     15.72788        -56.69898   3.80969   215   %  1.4308
     216     -72.41053     15.78756        -56.62297   3.88570   216   %  1.4330
     217     -72.42701     15.83936        -56.58765   3.92102   217   %  1.4311
     218     -72.40922     15.90130        -56.50792   4.00075   218   %  1.4333
     219     -72.42717     15.95415        -56.47302   4.03565   219   %  1.4314
     220     -72.40923     16.01509        -56.39414   4.11453   220   %  1.4335
     221     -72.42717     16.06740        -56.35976   4.14891   221   %  1.4317
     222     -72.40812     16.13048        -56.27765   4.23102   222   %  1.4337
     223     -72.42727     16.18414        -56.24314   4.26553   223   %  1.4319
     224     -72.40718     16.24878        -56.15840   4.35027   224   %  1.4340
     225     -72.42738     16.30236        -56.12502   4.38365   225   %  1.4322
     226     -72.40687     16.36638        -56.04050   4.46817   226   %  1.4342
     227     -72.42740     16.41928        -56.00812   4.50055   227   %  1.4324
     228     -72.40642     16.48339        -55.92303   4.58564   228   %  1.4343
     229     -72.42743     16.53620        -55.89123   4.61744   229   %  1.4327
     230     -72.40547     16.60166        -55.80381   4.70486   230   %  1.4345
     231     -72.42746     16.65506        -55.77240   4.73627   231   %  1.4329
     232     -72.40500     16.72088        -55.68412   4.82455   232   %  1.4347
     233     -72.42745     16.77497        -55.65248   4.85619   233   %  1.4331
     234     -72.40439     16.84212        -55.56227   4.94640   234   %  1.4349
     235     -72.42746     16.89569        -55.53177   4.97690   235   %  1.4333
     236     -72.40340     16.96385        -55.43955   5.06912   236   %  1.4351
     237     -72.42745     17.01826        -55.40919   5.09948   237   %  1.4335
     238     -72.40310     17.08657        -55.31653   5.19214   238   %  1.4352
     239     -72.42744     17.14120        -55.28624   5.22243   239   %  1.4337
     240     -72.40319     17.20919        -55.19400   5.31467   240   %  1.4354
     241     -72.42743     17.26358        -55.16385   5.34482   241   %  1.4338
     242     -72.40287     17.33213        -55.07074   5.43793   242   %  1.4355
     243     -72.42740     17.38586        -55.04154   5.46712   243   %  1.4340
     244     -72.40094     17.45764        -54.94330   5.56537   244   %  1.4357
     245     -72.42729     17.51249        -54.91479   5.59388   245   %  1.4342
     246     -72.40007     17.58511        -54.81497   5.69370   246   %  1.4359
     247     -72.42721     17.63976        -54.78745   5.72122   247   %  1.4344
     248     -72.39791     17.71588        -54.68203   5.82664   248   %  1.4361
     249     -72.42708     17.77306        -54.65401   5.85466   249   %  1.4345
     250     -72.39609     17.85280        -54.54329   5.96538   250   %  1.4363
     251     -72.42680     17.91051        -54.51630   5.99237   251   %  1.4347
     252     -72.39506     17.99172        -54.40334   6.10533   252   %  1.4364
     253     -72.42669     18.04972        -54.37697   6.13170   253   %  1.4349
     254     -72.39433     18.13164        -54.26269   6.24598   254   %  1.4366
     255     -72.42651     18.18945        -54.23706   6.27161   255   %  1.4351
     256     -72.39364     18.27239        -54.12124   6.38743   256   %  1.4367
     257     -72.42636     18.33015        -54.09622   6.41245   257   %  1.4352
     258     -72.39167     18.41655        -53.97511   6.53356   258   %  1.4369
     259     -72.42608     18.47604        -53.95004   6.55863   259   %  1.4354
     260     -72.38963     18.56659        -53.82304   6.68563   260   %  1.4371
     261     -72.42565     18.62704        -53.79861   6.71006   261   %  1.4356
     262     -72.38752     18.72179        -53.66573   6.84294   262   %  1.4373
     263     -72.42501     18.78230        -53.64271   6.86596   263   %  1.4358
     264     -72.38610     18.87986        -53.50623   7.00244   264   %  1.4375
     265     -72.42454     18.94002        -53.48451   7.02416   265   %  1.4360
     266     -72.38408     19.04108        -53.34300   7.16567   266   %  1.4378
     267     -72.42424     19.10309        -53.32115   7.18752   267   %  1.4362
     268     -72.38209     19.20797        -53.17412   7.33455   268   %  1.4380
     269     -72.42354     19.27055        -53.15299   7.35568   269   %  1.4364
     270     -72.38068     19.37939        -53.00129   7.50738   270   %  1.4382
     271     -72.42318     19.44244        -52.98075   7.52792   271   %  1.4366
     272     -72.37723     19.55784        -52.81939   7.68928   272   %  1.4384
     273     -72.42193     19.62238        -52.79955   7.70912   273   %  1.4368


           POTENTIAL ENERGY HAS STOPPED DROPPING


 **********************
 *                    *
 * JOB ENDED NORMALLY *
 *                    *
 **********************



 TOTAL JOB TIME:             0.14 SECONDS

 == MOPAC DONE ==
