 *******************************************************************************
 ** Site#:  999         For non-commercial use only           Version 21.129  **
 *******************************************************************************
 ** Cite this program as: MOPAC2016, Version: 21.129 , James J. P. Stewart,   **
 ** Stewart Computational Chemistry, web-site: HTTP://OpenMOPAC.net.          **
 *******************************************************************************
 **                                                                           **
 **                                MOPAC2016                                  **
 **                                                                           **
 *******************************************************************************

                              PM7 CALCULATION RESULTS

 *******************************************************************************
 *  CALCULATION DONE:                                Sun Nov 20 12:22:49 2022  *
 *  PM7        - The PM7 Hamiltonian to be used
 *
 *
 *
 *                 CHARGE ON SYSTEM = 0
 *
 *
 *
 *  IRC=N      - INTRINSIC REACTION COORDINATE  1 DEFINED
 *  PRECISE    - TIGHTER CRITERIA TO BE USED
 *  THREADS=1  - MULTI-THREADING NOT USED
 *  T=         - A TIME OF 172800.0 SECONDS REQUESTED
 *  DUMP=N     - RESTART FILE WRITTEN EVERY 7200.0 SECONDS REQUESTED
 *  CYCLES=    - DO A MAXIMUM OF 5000 STEPS
 *  OLDENS     - INITIAL DENSITY MATRIX READ OFF DISK
 *******************************************************************************
   pm7 threads=1 charge=0 irc= 1 oldens precise cycles=5000
 title
 title
   ATOM   CHEMICAL          X               Y               Z
  NUMBER   SYMBOL      (ANGSTROMS)     (ANGSTROMS)     (ANGSTROMS)
 
     1       C          0.22103571  *   0.05985372  *   0.18394324  *
     2       O          0.62602277  *   0.19176629  *   1.26432062  *
     3       O          1.03765711  *  -0.08396921  *  -1.02887031  *
     4       H         -0.16712189  *   0.13828368  *  -1.19554681  *
     5       H          1.90759514  *   0.14101891  *  -1.35132387  *
 


          CARTESIAN COORDINATES 

    NO.       ATOM           X           Y           Z

     1         C          0.2210      0.0599      0.1839
     2         O          0.6260      0.1918      1.2643
     3         O          1.0377     -0.0840     -1.0289
     4         H         -0.1671      0.1383     -1.1955
     5         H          1.9076      0.1410     -1.3513

 General Reference for PM7:
 "Optimization of Parameters for Semiempirical Methods VI: More Modifications to the 
 NDDO Approximations and Re-optimization of Parameters", J. J. P. Stewart, J. Mol. Mod., 1:32, 19 (2013)
 https://link.springer.com/article/10.1007/s00894-012-1667-x

           Empirical Formula: C H2 O2  =     5 atoms



      MOLECULAR POINT GROUP   :   C1  


      RHF CALCULATION, NO. OF DOUBLY OCCUPIED LEVELS = 9



          HEAT OF FORMATION =     -35.710498 KCALS/MOLE


          GRADIENT NORM =   0.00898

          MOLECULAR WEIGHT =   46.03


          ESTIMATED TIME TO COMPLETE CALCULATION =        0.00 SECONDS

    FOR POINT-GROUP C1   THERE ARE   1 UNIQUE SYMMETRY FUNCTIONS.

 STEP:   1 TIME =     0.00 SECS, INTEGRAL =      0.00 TIME LEFT: 172800.00
 STEP:   2 TIME =     0.00 SECS, INTEGRAL =      0.00 TIME LEFT: 172800.00
 STEP:   3 TIME =     0.00 SECS, INTEGRAL =      0.01 TIME LEFT: 172799.99
 STEP:   4 TIME =     0.00 SECS, INTEGRAL =      0.01 TIME LEFT: 172799.99
 STEP:   5 TIME =     0.00 SECS, INTEGRAL =      0.01 TIME LEFT: 172799.99
 STEP:   6 TIME =     0.00 SECS, INTEGRAL =      0.02 TIME LEFT: 172799.98
 STEP:   7 TIME =     0.00 SECS, INTEGRAL =      0.02 TIME LEFT: 172799.98
 STEP:   8 TIME =     0.00 SECS, INTEGRAL =      0.02 TIME LEFT: 172799.98
 STEP:   9 TIME =     0.00 SECS, INTEGRAL =      0.02 TIME LEFT: 172799.98
 STEP:  10 TIME =     0.00 SECS, INTEGRAL =      0.02 TIME LEFT: 172799.98
 STEP:  11 TIME =     0.00 SECS, INTEGRAL =      0.03 TIME LEFT: 172799.97
 STEP:  12 TIME =     0.00 SECS, INTEGRAL =      0.03 TIME LEFT: 172799.97
 STEP:  13 TIME =     0.00 SECS, INTEGRAL =      0.03 TIME LEFT: 172799.97
 STEP:  14 TIME =     0.00 SECS, INTEGRAL =      0.03 TIME LEFT: 172799.97
 STEP:  15 TIME =     0.00 SECS, INTEGRAL =      0.04 TIME LEFT: 172799.96
  Stopping critera: r_ij>5*r_ij(0)
 
           INITIAL VELOCITY IN DRC (Angstroms/Femtosecond)
         0.04468        -0.04338        -0.01291
         0.01461         0.00379         0.00127
        -0.01724        -0.01156         0.00050
        -0.34050         0.64982         0.05921
        -0.15009        -0.00957         0.06661
 
  Deltat    =   0.24 fs
  Maxcyc    =      5000
  Jloop_lim =      5000
 
  Initial distance matrix
  Bond#     i     j    Ini_value(A)
      1     1     2          1.161
      2     1     3          1.469
      3     1     4          1.435
      4     1     5          2.282
      5     2     3          2.346
      6     2     4          2.585
      7     2     5          2.913
      8     3     4          1.236
      9     3     5          0.955
     10     4     5          2.081
 
 


     POINT   POTENTIAL  +  ENERGY LOST   =   TOTAL      ERROR    REF%   MOVEMENT
       1     -35.71050      0.00000        -35.71050   0.00000     1   %  0.0000
       2     -35.71077      0.00000        -35.71077  -0.00027     2   %  0.0020
       3     -35.71157      0.00000        -35.71157  -0.00107     3   %  0.0040
       4     -35.72482      0.00000        -35.72482  -0.01432     4   %  0.0146
       5     -35.75306      0.00000        -35.75306  -0.02825     5   %  0.0252
       6     -35.79593      0.08765        -35.70829   0.01653     6   %  0.0358
       7     -35.85255      0.15237        -35.70018   0.02464     7   %  0.0462
       8     -35.92483      0.22660        -35.69822   0.02659     8   %  0.0569
       9     -36.01178      0.31517        -35.69662   0.02820     9   %  0.0676
      10     -36.11217      0.41729        -35.69488   0.02994    10   %  0.0782
      11     -36.22728      0.53420        -35.69308   0.03174    11   %  0.0890
      12     -36.35558      0.66437        -35.69121   0.03361    12   %  0.0997
      13     -36.49704      0.80773        -35.68931   0.03551    13   %  0.1104
      14     -36.65173      0.96432        -35.68741   0.03741    14   %  0.1212
      15     -36.81739      1.13189        -35.68550   0.03932    15   %  0.1318
      16     -36.99504      1.31141        -35.68363   0.04119    16   %  0.1424
      17     -37.18527      1.50349        -35.68178   0.04304    17   %  0.1531
      18     -37.38811      1.70816        -35.67995   0.04487    18   %  0.1639
      19     -37.59863      1.92050        -35.67813   0.04669    19   %  0.1745
      20     -37.82016      2.14376        -35.67640   0.04842    20   %  0.1851
      21     -38.05249      2.37779        -35.67470   0.05012    21   %  0.1958
      22     -38.29729      2.62425        -35.67304   0.05178    22   %  0.2065
      23     -38.55124      2.87984        -35.67140   0.05342    23   %  0.2173
      24     -38.81443      3.14462        -35.66981   0.05501    24   %  0.2281
      25     -39.08487      3.41659        -35.66828   0.05654    25   %  0.2388
      26     -39.36074      3.69391        -35.66682   0.05800    26   %  0.2494
      27     -39.64784      3.98239        -35.66545   0.05937    27   %  0.2601
      28     -39.94220      4.27810        -35.66411   0.06071    28   %  0.2709
      29     -40.24039      4.57756        -35.66283   0.06199    29   %  0.2815
      30     -40.54878      4.88715        -35.66163   0.06319    30   %  0.2923
      31     -40.85827      5.19779        -35.66048   0.06433    31   %  0.3029
      32     -41.17393      5.51450        -35.65943   0.06539    32   %  0.3135
      33     -41.49551      5.83708        -35.65843   0.06639    33   %  0.3242
      34     -41.82566      6.16817        -35.65750   0.06732    34   %  0.3349
      35     -42.16027      6.50366        -35.65661   0.06821    35   %  0.3457
      36     -42.49390      6.83811        -35.65579   0.06903    36   %  0.3563
      37     -42.83303      7.17797        -35.65506   0.06976    37   %  0.3670
      38     -43.17490      7.52052        -35.65438   0.07044    38   %  0.3777
      39     -43.51978      7.86601        -35.65378   0.07104    39   %  0.3883
      40     -43.87102      8.21779        -35.65323   0.07159    40   %  0.3991
      41     -44.21845      8.56571        -35.65274   0.07208    41   %  0.4097
      42     -44.56824      8.91591        -35.65233   0.07249    42   %  0.4203
      43     -44.92121      9.26922        -35.65198   0.07284    43   %  0.4310
      44     -45.27639      9.62471        -35.65169   0.07313    44   %  0.4417
      45     -45.62841      9.97701        -35.65140   0.07341    45   %  0.4523
      46     -45.98316     10.33196        -35.65119   0.07363    46   %  0.4629
      47     -46.33585     10.68480        -35.65105   0.07377    47   %  0.4735
      48     -46.68823     11.03727        -35.65096   0.07386    48   %  0.4841
      49     -47.04010     11.38917        -35.65093   0.07389    49   %  0.4946
      50     -47.48515     11.83430        -35.65085   0.07397    50   %  0.5080
      51     -47.83901     12.18797        -35.65104   0.07377    51   %  0.5187
      52     -48.19212     12.54093        -35.65119   0.07363    52   %  0.5294
      53     -48.54174     12.89035        -35.65138   0.07344    53   %  0.5400
      54     -48.88689     13.23526        -35.65163   0.07319    54   %  0.5506
      55     -49.23202     13.58010        -35.65192   0.07290    55   %  0.5612
      56     -49.57736     13.92510        -35.65226   0.07256    56   %  0.5718
      57     -49.91699     14.26434        -35.65265   0.07217    57   %  0.5824
      58     -50.25260     14.59952        -35.65308   0.07174    58   %  0.5929
      59     -50.58820     14.93466        -35.65354   0.07128    59   %  0.6035
      60     -50.92360     15.26955        -35.65405   0.07077    60   %  0.6142
      61     -51.25594     15.60134        -35.65460   0.07021    61   %  0.6248
      62     -51.58278     15.92757        -35.65520   0.06962    62   %  0.6354
      63     -51.90516     16.24933        -35.65583   0.06899    63   %  0.6459
      64     -52.22789     16.57141        -35.65648   0.06833    64   %  0.6566
      65     -52.54378     16.88659        -35.65719   0.06763    65   %  0.6671
      66     -52.85385     17.19593        -35.65791   0.06691    66   %  0.6776
      67     -53.15945     17.50080        -35.65865   0.06617    67   %  0.6880
      68     -53.46263     17.80321        -35.65942   0.06540    68   %  0.6984
      69     -53.76467     18.10446        -35.66021   0.06461    69   %  0.7089
      70     -54.05943     18.39838        -35.66104   0.06378    70   %  0.7193
      71     -54.35136     18.68948        -35.66188   0.06294    71   %  0.7297
      72     -54.63900     18.97625        -35.66275   0.06207    72   %  0.7401
      73     -54.92377     19.26015        -35.66363   0.06119    73   %  0.7504
      74     -55.20264     19.53811        -35.66453   0.06029    74   %  0.7607
      75     -55.47742     19.81198        -35.66544   0.05938    75   %  0.7710
      76     -55.74726     20.08090        -35.66636   0.05846    76   %  0.7812
      77     -56.01579     20.34850        -35.66729   0.05753    77   %  0.7914
      78     -56.28205     20.61381        -35.66824   0.05658    78   %  0.8017
      79     -56.54237     20.87316        -35.66920   0.05561    79   %  0.8118
      80     -56.79919     21.12902        -35.67017   0.05465    80   %  0.8219
      81     -57.05332     21.38219        -35.67113   0.05369    81   %  0.8321
      82     -57.30414     21.63204        -35.67211   0.05271    82   %  0.8421
      83     -57.55048     21.87740        -35.67309   0.05173    83   %  0.8521
      84     -57.79213     22.11807        -35.67405   0.05077    84   %  0.8620
      85     -58.03032     22.35531        -35.67501   0.04981    85   %  0.8718
      86     -58.26686     22.59091        -35.67595   0.04887    86   %  0.8816
      87     -58.50270     22.82580        -35.67690   0.04792    87   %  0.8915
      88     -58.73278     23.05493        -35.67785   0.04696    88   %  0.9011
      89     -58.96110     23.28232        -35.67878   0.04604    89   %  0.9107
      90     -59.18690     23.50721        -35.67969   0.04513    90   %  0.9203
      91     -59.41131     23.73072        -35.68060   0.04422    91   %  0.9298
      92     -59.63168     23.95020        -35.68149   0.04333    92   %  0.9392
      93     -59.85382     24.17147        -35.68235   0.04247    93   %  0.9487
      94     -60.07261     24.38939        -35.68322   0.04160    94   %  0.9580
      95     -60.28744     24.60338        -35.68406   0.04076    95   %  0.9672
      96     -60.50240     24.81754        -35.68486   0.03996    96   %  0.9763
      97     -60.71817     25.03251        -35.68565   0.03917    97   %  0.9856
      98     -60.93196     25.24552        -35.68644   0.03838    98   %  0.9947
      99     -61.14511     25.45792        -35.68719   0.03763    99   %  1.0038
     100     -61.35755     25.66963        -35.68792   0.03689   100   %  1.0129
     101     -61.56849     25.87986        -35.68863   0.03619   101   %  1.0219
     102     -61.77766     26.08836        -35.68931   0.03551   102   %  1.0308
     103     -61.99008     26.30013        -35.68995   0.03487   103   %  1.0400
     104     -62.19865     26.50807        -35.69058   0.03423   104   %  1.0490
     105     -62.40897     26.71780        -35.69117   0.03365   105   %  1.0581
     106     -62.62105     26.92931        -35.69174   0.03308   106   %  1.0673
     107     -62.83417     27.14188        -35.69229   0.03253   107   %  1.0767
     108     -63.04814     27.35533        -35.69281   0.03200   108   %  1.0862
     109     -63.25996     27.56665        -35.69331   0.03151   109   %  1.0957
     110     -63.47602     27.78226        -35.69376   0.03106   110   %  1.1055
     111     -63.69275     27.99818        -35.69458   0.03024   111   %  1.1154
     112     -63.91188     28.21668        -35.69520   0.02962   112   %  1.1257
     113     -64.13216     28.43634        -35.69582   0.02900   113   %  1.1362
     114     -64.35434     28.65792        -35.69642   0.02840   114   %  1.1469
     115     -64.57834     28.88133        -35.69700   0.02782   115   %  1.1580
     116     -64.80385     29.10629        -35.69756   0.02726   116   %  1.1693
     117     -65.03128     29.33319        -35.69809   0.02673   117   %  1.1810
     118     -65.26168     29.56308        -35.69860   0.02622   118   %  1.1930
     119     -65.49588     29.79679        -35.69909   0.02573   119   %  1.2054
     120     -65.72937     30.02981        -35.69956   0.02526   120   %  1.2180
     121     -65.96762     30.26763        -35.69999   0.02482   121   %  1.2311
     122     -66.21033     30.50992        -35.70042   0.02440   122   %  1.2446
     123     -66.45610     30.75527        -35.70083   0.02399   123   %  1.2584
     124     -66.70525     31.00403        -35.70121   0.02361   124   %  1.2725
     125     -66.95429     31.25271        -35.70158   0.02324   125   %  1.2868
     126     -67.20470     31.50278        -35.70193   0.02289   126   %  1.3012
     127     -67.46058     31.75832        -35.70226   0.02256   127   %  1.3159
     128     -67.71715     32.01457        -35.70258   0.02224   128   %  1.3308
     129     -67.97614     32.27325        -35.70289   0.02193   129   %  1.3459
     130     -68.23838     32.53518        -35.70320   0.02162   130   %  1.3611
     131     -68.50000     32.79650        -35.70351   0.02131   131   %  1.3764
     132     -68.76648     33.06268        -35.70381   0.02101   132   %  1.3919
     133     -69.02932     33.32519        -35.70412   0.02070   133   %  1.4073
     134     -69.29330     33.58887        -35.70443   0.02039   134   %  1.4227
     135     -69.56176     33.85701        -35.70475   0.02007   135   %  1.4385
     136     -69.82774     34.12264        -35.70510   0.01972   136   %  1.4541
     137     -70.09214     34.38669        -35.70545   0.01937   137   %  1.4697
     138     -70.35824     34.65242        -35.70582   0.01900   138   %  1.4854
     139     -70.61955     34.91333        -35.70622   0.01860   139   %  1.5009
     140     -70.88122     35.17460        -35.70662   0.01820   140   %  1.5166
     141     -71.14111     35.43405        -35.70706   0.01776   141   %  1.5322
     142     -71.39820     35.69068        -35.70752   0.01730   142   %  1.5478
     143     -71.65586     35.94786        -35.70801   0.01681   143   %  1.5636
     144     -71.90743     36.19889        -35.70853   0.01628   144   %  1.5791
     145     -72.15678     36.44771        -35.70907   0.01575   145   %  1.5947
     146     -72.40227     36.69263        -35.70964   0.01518   146   %  1.6102
     147     -72.64493     36.93470        -35.71023   0.01459   147   %  1.6257
     148     -72.88454     37.17368        -35.71086   0.01396   148   %  1.6412
     149     -73.11897     37.40745        -35.71152   0.01330   149   %  1.6567
     150     -73.35159     37.63940        -35.71219   0.01263   150   %  1.6722
     151     -73.57910     37.86619        -35.71291   0.01191   151   %  1.6877
     152     -73.80256     38.08891        -35.71365   0.01117   152   %  1.7032
     153     -74.01948     38.30507        -35.71441   0.01040   153   %  1.7185
     154     -74.23388     38.51869        -35.71518   0.00963   154   %  1.7339
     155     -74.44462     38.72862        -35.71600   0.00882   155   %  1.7495
     156     -74.64912     38.93227        -35.71685   0.00797   156   %  1.7649
     157     -74.84778     39.13008        -35.71770   0.00712   157   %  1.7802
     158     -75.03997     39.32141        -35.71856   0.00625   158   %  1.7953
     159     -75.22784     39.50841        -35.71943   0.00539   159   %  1.8106
     160     -75.41071     39.69039        -35.72033   0.00449   160   %  1.8258
     161     -75.58886     39.86762        -35.72124   0.00358   161   %  1.8410
     162     -75.76061     40.03844        -35.72217   0.00265   162   %  1.8561
     163     -75.92746     40.20437        -35.72309   0.00173   163   %  1.8713
     164     -76.08955     40.36552        -35.72404   0.00078   164   %  1.8865
     165     -76.24501     40.52001        -35.72500  -0.00018   165   %  1.9015
     166     -76.39548     40.66954        -35.72594  -0.00112   166   %  1.9166
     167     -76.54201     40.81510        -35.72690  -0.00209   167   %  1.9318
     168     -76.68267     40.95478        -35.72789  -0.00307   168   %  1.9469
     169     -76.81612     41.08725        -35.72887  -0.00405   169   %  1.9619
     170     -76.94515     41.21538        -35.72977  -0.00495   170   %  1.9768
     171     -77.06753     41.33689        -35.73064  -0.00582   171   %  1.9918
     172     -77.18716     41.45668        -35.73047  -0.00565   172   %  2.0067
     173     -77.28536     41.55902        -35.72634  -0.00152   173   %  2.0206
     174     -77.36104     41.65516        -35.70588   0.01894   174   %  2.0300
     175     -77.41205     41.73511        -35.67694   0.04788   175   %  2.0385
     176     -77.46209     41.83048        -35.63161   0.09321   176   %  2.0445
     177     -77.50733     41.91051        -35.59682   0.12800   177   %  2.0523
     178     -77.55377     42.00788        -35.54589   0.17892   178   %  2.0582
     179     -77.59607     42.08372        -35.51234   0.21248   179   %  2.0657
     180     -77.63807     42.17854        -35.45953   0.26529   180   %  2.0715
     181     -77.67797     42.25209        -35.42588   0.29894   181   %  2.0788
     182     -77.71546     42.34437        -35.37109   0.35373   182   %  2.0843
     183     -77.75298     42.41607        -35.33691   0.38791   183   %  2.0913
     184     -77.78638     42.50552        -35.28086   0.44396   184   %  2.0965
     185     -77.82159     42.57488        -35.24671   0.47811   185   %  2.1033
     186     -77.85144     42.66219        -35.18924   0.53558   186   %  2.1082
     187     -77.88460     42.72877        -35.15582   0.56900   187   %  2.1148
     188     -77.91107     42.81557        -35.09549   0.62932   188   %  2.1196
     189     -77.94310     42.88158        -35.06151   0.66331   189   %  2.1260
     190     -77.96609     42.96587        -35.00023   0.72459   190   %  2.1305
     191     -77.99653     43.02964        -34.96690   0.75792   191   %  2.1367
     192     -78.01669     43.11251        -34.90418   0.82064   192   %  2.1410
     193     -78.04603     43.17501        -34.87102   0.85380   193   %  2.1471
     194     -78.06332     43.25643        -34.80690   0.91792   194   %  2.1511
     195     -78.09174     43.31857        -34.77317   0.95165   195   %  2.1571
     196     -78.10612     43.40026        -34.70587   1.01895   196   %  2.1609
     197     -78.13388     43.46108        -34.67280   1.05202   197   %  2.1667
     198     -78.14588     43.54075        -34.60514   1.11968   198   %  2.1703
     199     -78.17292     43.59970        -34.57321   1.15161   199   %  2.1760
     200     -78.18220     43.68017        -34.50202   1.22280   200   %  2.1795
     201     -78.20936     43.73875        -34.47060   1.25422   201   %  2.1850
     202     -78.21634     43.81765        -34.39868   1.32614   202   %  2.1884
     203     -78.24317     43.87596        -34.36721   1.35761   203   %  2.1939
     204     -78.24776     43.95505        -34.29271   1.43211   204   %  2.1970
     205     -78.27441     44.01258        -34.26182   1.46300   205   %  2.2023
     206     -78.27703     44.09084        -34.18618   1.53863   206   %  2.2054
     207     -78.30352     44.14744        -34.15608   1.56873   207   %  2.2106
     208     -78.30371     44.22670        -34.07701   1.64781   208   %  2.2135
     209     -78.33077     44.28416        -34.04660   1.67822   209   %  2.2187
     210     -78.32939     44.36178        -33.96760   1.75722   210   %  2.2214
     211     -78.35588     44.41787        -33.93801   1.78681   211   %  2.2265
     212     -78.35311     44.49438        -33.85873   1.86609   212   %  2.2290
     213     -78.37935     44.55100        -33.82835   1.89646   213   %  2.2341
     214     -78.37481     44.62798        -33.74683   1.97799   214   %  2.2364
     215     -78.40102     44.68466        -33.71636   2.00846   215   %  2.2414
     216     -78.39440     44.76339        -33.63101   2.09381   216   %  2.2436
     217     -78.42133     44.82048        -33.60085   2.12397   217   %  2.2485
     218     -78.41378     44.89730        -33.51647   2.20834   218   %  2.2506
     219     -78.44024     44.95335        -33.48689   2.23793   219   %  2.2555
     220     -78.43067     45.03186        -33.39881   2.32601   220   %  2.2574
     221     -78.45787     45.08769        -33.37017   2.35464   221   %  2.2621
     222     -78.44648     45.16733        -33.27915   2.44567   222   %  2.2640
     223     -78.47462     45.22388        -33.25074   2.47408   223   %  2.2688
     224     -78.46208     45.30275        -33.15933   2.56549   224   %  2.2705
     225     -78.49021     45.35912        -33.13109   2.59373   225   %  2.2753
     226     -78.47688     45.43712        -33.03975   2.68506   226   %  2.2768
     227     -78.50477     45.49328        -33.01149   2.71332   227   %  2.2816
     228     -78.49049     45.57106        -32.91944   2.80538   228   %  2.2829
     229     -78.51835     45.62739        -32.89096   2.83386   229   %  2.2877
     230     -78.50374     45.70375        -32.79999   2.92483   230   %  2.2889
     231     -78.53098     45.75894        -32.77204   2.95278   231   %  2.2936
     232     -78.51557     45.83508        -32.68049   3.04433   232   %  2.2947
     233     -78.54281     45.88972        -32.65309   3.07173   233   %  2.2993
     234     -78.52630     45.96633        -32.55997   3.16484   234   %  2.3003
     235     -78.55395     46.02089        -32.53307   3.19175   235   %  2.3049
     236     -78.53611     46.09855        -32.43756   3.28725   236   %  2.3058
     237     -78.56456     46.15467        -32.40989   3.31493   237   %  2.3105
     238     -78.54601     46.23230        -32.31370   3.41112   238   %  2.3112
     239     -78.57435     46.28766        -32.28669   3.43813   239   %  2.3158
     240     -78.55489     46.36589        -32.18900   3.53582   240   %  2.3164
     241     -78.58363     46.42121        -32.16242   3.56240   241   %  2.3210
     242     -78.56253     46.50146        -32.06107   3.66375   242   %  2.3216
     243     -78.59236     46.55768        -32.03468   3.69014   243   %  2.3261
     244     -78.56919     46.64128        -31.92790   3.79691   244   %  2.3266
     245     -78.60060     46.69882        -31.90177   3.82305   245   %  2.3311
     246     -78.57552     46.78552        -31.79000   3.93481   246   %  2.3315
     247     -78.60839     46.84397        -31.76442   3.96040   247   %  2.3360
     248     -78.58305     46.93023        -31.65281   4.07201   248   %  2.3364
     249     -78.61582     46.98721        -31.62862   4.09620   249   %  2.3409
     250     -78.59002     47.07308        -31.51694   4.20788   250   %  2.3413
     251     -78.62300     47.12998        -31.49302   4.23180   251   %  2.3457
     252     -78.59655     47.21587        -31.38068   4.34414   252   %  2.3460
     253     -78.62981     47.27333        -31.35649   4.36833   253   %  2.3505
     254     -78.60304     47.35891        -31.24413   4.48069   254   %  2.3507
     255     -78.63616     47.41598        -31.22018   4.50464   255   %  2.3551
     256     -78.60728     47.50528        -31.10200   4.62282   256   %  2.3551
     257     -78.64198     47.56410        -31.07788   4.64694   257   %  2.3596
     258     -78.61224     47.65529        -30.95695   4.76787   258   %  2.3596
     259     -78.64747     47.71337        -30.93411   4.79071   259   %  2.3639
     260     -78.61681     47.80619        -30.81062   4.91420   260   %  2.3640
     261     -78.65294     47.86500        -30.78794   4.93688   261   %  2.3684
     262     -78.62203     47.95738        -30.66465   5.06017   262   %  2.3683
     263     -78.65821     48.01608        -30.64213   5.08269   263   %  2.3727
     264     -78.62652     48.10928        -30.51723   5.20758   264   %  2.3725
     265     -78.66319     48.16882        -30.49437   5.23045   265   %  2.3770
     266     -78.62929     48.26610        -30.36320   5.36162   266   %  2.3766
     267     -78.66742     48.32674        -30.34068   5.38414   267   %  2.3810
     268     -78.63419     48.42404        -30.21015   5.51467   268   %  2.3807
     269     -78.67214     48.48393        -30.18821   5.53661   269   %  2.3852
     270     -78.63685     48.58351        -30.05334   5.67148   270   %  2.3847
     271     -78.67607     48.64485        -30.03123   5.69359   271   %  2.3891
     272     -78.64095     48.74541        -29.89553   5.82929   272   %  2.3887
     273     -78.68025     48.80631        -29.87394   5.85088   273   %  2.3931
     274     -78.64552     48.90495        -29.74057   5.98425   274   %  2.3926
     275     -78.68434     48.96532        -29.71901   6.00581   275   %  2.3970
     276     -78.64789     49.06644        -29.58145   6.14337   276   %  2.3964
     277     -78.68765     49.12759        -29.56006   6.16476   277   %  2.4008
     278     -78.65115     49.23038        -29.42077   6.30405   278   %  2.4001
     279     -78.69135     49.29184        -29.39951   6.32531   279   %  2.4046
     280     -78.65506     49.39292        -29.26213   6.46269   280   %  2.4039
     281     -78.69483     49.45374        -29.24109   6.48373   281   %  2.4083
     282     -78.65817     49.55518        -29.10300   6.62182   282   %  2.4075
     283     -78.69818     49.61654        -29.08164   6.64318   283   %  2.4119
     284     -78.66143     49.71766        -28.94376   6.78106   284   %  2.4110
     285     -78.70127     49.77865        -28.92263   6.80219   285   %  2.4154
     286     -78.66194     49.88498        -28.77697   6.94785   286   %  2.4144
     287     -78.70375     49.94813        -28.75562   6.96920   287   %  2.4188
     288     -78.66477     50.05579        -28.60899   7.11583   288   %  2.4178
     289     -78.70667     50.11833        -28.58834   7.13648   289   %  2.4223
     290     -78.66812     50.22430        -28.44382   7.28100   290   %  2.4212
     291     -78.70933     50.28529        -28.42405   7.30077   291   %  2.4256
     292     -78.66833     50.39644        -28.27189   7.45293   292   %  2.4245
     293     -78.71166     50.46014        -28.25152   7.47330   293   %  2.4289
     294     -78.66877     50.57641        -28.09237   7.63245   294   %  2.4277
     295     -78.71344     50.64047        -28.07297   7.65185   295   %  2.4321
     296     -78.67010     50.76128        -27.90883   7.81599   296   %  2.4310
     297     -78.71577     50.82574        -27.89002   7.83480   297   %  2.4354
     298     -78.67158     50.94823        -27.72335   8.00147   298   %  2.4343
     299     -78.71784     51.01277        -27.70507   8.01975   299   %  2.4387
     300     -78.67299     51.13837        -27.53463   8.19019   300   %  2.4376
     301     -78.71989     51.20301        -27.51688   8.20794   301   %  2.4420
     302     -78.67325     51.33362        -27.33963   8.38519   302   %  2.4408
     303     -78.72165     51.39960        -27.32204   8.40277   303   %  2.4452
     304     -78.67159     51.53971        -27.13189   8.59293   304   %  2.4439
     305     -78.72280     51.60846        -27.11434   8.61048   305   %  2.4483
     306     -78.67393     51.75170        -26.92223   8.80258   306   %  2.4472
     307     -78.72518     51.81965        -26.90553   8.81929   307   %  2.4516
     308     -78.67442     51.96533        -26.70909   9.01572   308   %  2.4504
     309     -78.72676     52.03440        -26.69236   9.03246   309   %  2.4548
     310     -78.67376     52.18807        -26.48569   9.23913   310   %  2.4535
     311     -78.72783     52.25846        -26.46936   9.25546   311   %  2.4579
     312     -78.67319     52.42113        -26.25205   9.47276   312   %  2.4566
     313     -78.72898     52.49275        -26.23623   9.48859   313   %  2.4611
     314     -78.67448     52.65977        -26.01472   9.71010   314   %  2.4599
     315     -78.73054     52.73077        -25.99977   9.72505   315   %  2.4643
     316     -78.67676     52.89908        -25.77768   9.94714   316   %  2.4631
     317     -78.73314     52.97056        -25.76258   9.96224   317   %  2.4676
     318     -78.67853     53.13660        -25.54193  10.18289   318   %  2.4663
     319     -78.73500     53.20826        -25.52674  10.19808   319   %  2.4707
     320     -78.67819     53.38044        -25.29775  10.42707   320   %  2.4693
     321     -78.73574     53.45284        -25.28289  10.44193   321   %  2.4737
     322     -78.67916     53.63202        -25.04714  10.67768   322   %  2.4724
     323     -78.73774     53.70537        -25.03237  10.69245   323   %  2.4769
     324     -78.68253     53.87996        -24.80258  10.92224   324   %  2.4756
     325     -78.74002     53.95178        -24.78823  10.93659   325   %  2.4800
     326     -78.67951     54.13551        -24.54401  11.18081   326   %  2.4784
     327     -78.74013     54.21122        -24.52891  11.19591   327   %  2.4829
     328     -78.68320     54.39783        -24.28537  11.43945   328   %  2.4815
     329     -78.74223     54.47042        -24.27182  11.45300   329   %  2.4860
     330     -78.68476     54.65664        -24.02813  11.69669   330   %  2.4845
     331     -78.74402     54.72968        -24.01435  11.71047   331   %  2.4890
     332     -78.68305     54.92269        -23.76037  11.96445   332   %  2.4874
     333     -78.74487     54.99896        -23.74591  11.97891   333   %  2.4919
     334     -78.68202     55.20092        -23.48110  12.24372   334   %  2.4902
     335     -78.74545     55.27849        -23.46695  12.25787   335   %  2.4948
     336     -78.68287     55.48712        -23.19575  12.52906   336   %  2.4932
     337     -78.74628     55.56372        -23.18256  12.54226   337   %  2.4977
     338     -78.67855     55.78876        -22.88979  12.83503   338   %  2.4959
     339     -78.74518     55.86853        -22.87665  12.84817   339   %  2.5004
     340     -78.68204     56.10174        -22.58031  13.14451   340   %  2.4991
     341     -78.74768     56.17929        -22.56839  13.15643   341   %  2.5036
     342     -78.68507     56.40527        -22.27980  13.44502   342   %  2.5021
     343     -78.75049     56.48312        -22.26737  13.45745   343   %  2.5067
     344     -78.68135     56.71475        -21.96661  13.75821   344   %  2.5048
     345     -78.74935     56.79555        -21.95381  13.77101   345   %  2.5094
     346     -78.68325     57.04146        -21.64179  14.08303   346   %  2.5078
     347     -78.75099     57.12092        -21.63007  14.09475   347   %  2.5124
     348     -78.67845     57.37943        -21.29902  14.42580   348   %  2.5106
     349     -78.75033     57.46390        -21.28643  14.43839   349   %  2.5152
     350     -78.68099     57.72992        -20.95107  14.77375   350   %  2.5136
     351     -78.75174     57.81186        -20.93988  14.78494   351   %  2.5182
     352     -78.67621     58.09396        -20.58225  15.14257   352   %  2.5163
     353     -78.75015     58.17939        -20.57076  15.15406   353   %  2.5209
     354     -78.67409     58.48546        -20.18864  15.53618   354   %  2.5193
     355     -78.75047     58.57291        -20.17756  15.54726   355   %  2.5239
     356     -78.67294     58.88935        -19.78360  15.94122   356   %  2.5222
     357     -78.75025     58.97715        -19.77310  15.95172   357   %  2.5268
     358     -78.67244     59.30965        -19.36279  16.36203   358   %  2.5253
     359     -78.75052     59.39772        -19.35280  16.37202   359   %  2.5299
     360     -78.78274     59.39961        -19.38313  16.34169   360   %  2.5352
     361     -78.75259     59.43420        -19.31839  16.40643   361   %  2.5320
     362     -78.78418     59.49279        -19.29138  16.43344   362   %  2.5368
     363     -78.75361     59.57079        -19.18282  16.54200   363   %  2.5334
     364     -78.78534     59.62781        -19.15753  16.56729   364   %  2.5384
     365     -78.75499     59.70759        -19.04740  16.67742   365   %  2.5351
     366     -78.78644     59.76470        -19.02174  16.70308   366   %  2.5400
     367     -78.75589     59.84477        -18.91112  16.81370   367   %  2.5367
     368     -78.78744     59.90203        -18.88542  16.83940   368   %  2.5417
     369     -78.75568     59.98474        -18.77095  16.95387   369   %  2.5383
     370     -78.78826     60.04257        -18.74569  16.97913   370   %  2.5432
     371     -78.75511     60.12843        -18.62668  17.09814   371   %  2.5398
     372     -78.78909     60.18727        -18.60182  17.12300   372   %  2.5448
     373     -78.75527     60.27464        -18.48063  17.24419   373   %  2.5415
     374     -78.78990     60.33319        -18.45671  17.26811   374   %  2.5464
     375     -78.75511     60.42268        -18.33242  17.39240   375   %  2.5431
     376     -78.79078     60.48201        -18.30877  17.41605   376   %  2.5481
     377     -78.75713     60.56930        -18.18783  17.53698   377   %  2.5449
     378     -78.79195     60.62703        -18.16492  17.55990   378   %  2.5498
     379     -78.75799     60.71418        -18.04381  17.68101   379   %  2.5466
     380     -78.79310     60.77297        -18.02013  17.70469   380   %  2.5516
     381     -78.75911     60.86016        -17.89895  17.82587   381   %  2.5483
     382     -78.79403     60.91831        -17.87573  17.84909   382   %  2.5532
     383     -78.75915     61.00772        -17.75143  17.97339   383   %  2.5500
     384     -78.79487     61.06635        -17.72852  17.99630   384   %  2.5549
     385     -78.75951     61.15713        -17.60237  18.12244   385   %  2.5516
     386     -78.79594     61.21669        -17.57925  18.14557   386   %  2.5566
     387     -78.75969     61.30905        -17.45064  18.27418   387   %  2.5533
     388     -78.79685     61.36946        -17.42738  18.29743   388   %  2.5583
     389     -78.75994     61.46382        -17.29612  18.42870   389   %  2.5550
     390     -78.79754     61.52369        -17.27385  18.45097   390   %  2.5599
     391     -78.76102     61.61819        -17.14283  18.58199   391   %  2.5567
     392     -78.79855     61.67719        -17.12136  18.60346   392   %  2.5616
     393     -78.76043     61.77430        -16.98613  18.73869   393   %  2.5583
     394     -78.79930     61.83480        -16.96450  18.76032   394   %  2.5633
     395     -78.75912     61.93716        -16.82195  18.90287   395   %  2.5600
     396     -78.79975     61.99895        -16.80080  18.92402   396   %  2.5649
     397     -78.75874     62.10516        -16.65358  19.07124   397   %  2.5617
     398     -78.80044     62.16722        -16.63322  19.09160   398   %  2.5666
     399     -78.75727     62.27859        -16.47869  19.24613   399   %  2.5633
     400     -78.80099     62.34269        -16.45830  19.26652   400   %  2.5683
     401     -78.75903     62.45358        -16.30545  19.41937   401   %  2.5652
     402     -78.80219     62.51626        -16.28594  19.43888   402   %  2.5702
     403     -78.75965     62.62739        -16.13226  19.59255   403   %  2.5671
     404     -78.80304     62.69008        -16.11296  19.61186   404   %  2.5720
     405     -78.76021     62.80292        -15.95729  19.76753   405   %  2.5689
     406     -78.80420     62.86642        -15.93778  19.78704   406   %  2.5739
     407     -78.76020     62.98110        -15.77910  19.94572   407   %  2.5707
     408     -78.80506     63.04567        -15.75939  19.96543   408   %  2.5757
     409     -78.76062     63.16260        -15.59802  20.12680   409   %  2.5725
     410     -78.80603     63.22759        -15.57844  20.14638   410   %  2.5775
     411     -78.76213     63.34395        -15.41818  20.30663   411   %  2.5744
     412     -78.80724     63.40838        -15.39886  20.32596   412   %  2.5794
     413     -78.76150     63.52790        -15.23360  20.49122   413   %  2.5761
     414     -78.80771     63.59334        -15.21437  20.51044   414   %  2.5811
     415     -78.76167     63.71654        -15.04514  20.67968   415   %  2.5780
     416     -78.80834     63.78149        -15.02685  20.69797   416   %  2.5829
     417     -78.75992     63.91115        -14.84878  20.87604   417   %  2.5797
     418     -78.80882     63.97858        -14.83025  20.89457   418   %  2.5847
     419     -78.76196     64.10760        -14.65437  21.07045   419   %  2.5817
     420     -78.81008     64.17325        -14.63682  21.08799   420   %  2.5867
     421     -78.76250     64.30290        -14.45960  21.26522   421   %  2.5836
     422     -78.81093     64.36880        -14.44213  21.28269   422   %  2.5886
     423     -78.76287     64.50084        -14.26204  21.46278   423   %  2.5855
     424     -78.81205     64.56765        -14.24440  21.48042   424   %  2.5905
     425     -78.76369     64.70016        -14.06353  21.66129   425   %  2.5874
     426     -78.81306     64.76704        -14.04602  21.67880   426   %  2.5925
     427     -78.76597     64.89794        -13.86804  21.85678   427   %  2.5895
     428     -78.81450     64.96360        -13.85090  21.87392   428   %  2.5945
     429     -78.76794     65.09201        -13.67594  22.04888   429   %  2.5915
     430     -78.81595     65.15732        -13.65863  22.06619   430   %  2.5965
     431     -78.76772     65.28781        -13.47991  22.24491   431   %  2.5933
     432     -78.81681     65.35475        -13.46206  22.26276   432   %  2.5984
     433     -78.76940     65.48538        -13.28402  22.44080   433   %  2.5953
     434     -78.81791     65.55104        -13.26686  22.45796   434   %  2.6003
     435     -78.76893     65.68514        -13.08379  22.64103   435   %  2.5971
     436     -78.81850     65.75189        -13.06661  22.65821   436   %  2.6021
     437     -78.76656     65.89456        -12.87200  22.85282   437   %  2.5989
     438     -78.81845     65.96347        -12.85498  22.86984   438   %  2.6039
     439     -78.76740     66.11028        -12.65712  23.06770   439   %  2.6009
     440     -78.81967     66.17900        -12.64067  23.08415   440   %  2.6060
     441     -78.76765     66.32652        -12.44114  23.28368   441   %  2.6029
     442     -78.82081     66.39656        -12.42425  23.30057   442   %  2.6080
     443     -78.77031     66.54121        -12.22910  23.49572   443   %  2.6050
     444     -78.82213     66.60916        -12.21298  23.51184   444   %  2.6100
     445     -78.76851     66.75988        -12.00863  23.71619   445   %  2.6068
     446     -78.82243     66.83049        -11.99194  23.73288   446   %  2.6119
     447     -78.77018     66.98295        -11.78723  23.93759   447   %  2.6089
     448     -78.82360     67.05215        -11.77145  23.95337   448   %  2.6140
     449     -78.77177     67.20370        -11.56807  24.15675   449   %  2.6110
     450     -78.82524     67.27329        -11.55195  24.17287   450   %  2.6161
     451     -78.77495     67.41903        -11.35593  24.36889   451   %  2.6131
     452     -78.82729     67.48775        -11.33955  24.38527   452   %  2.6183
     453     -78.77480     67.63400        -11.14080  24.58402   453   %  2.6150
     454     -78.82803     67.70425        -11.12378  24.60104   454   %  2.6202
     455     -78.77456     67.85569        -10.91887  24.80595   455   %  2.6170
     456     -78.82813     67.92530        -10.90283  24.82199   456   %  2.6220
     457     -78.77211     68.08798        -10.68413  25.04068   457   %  2.6188
     458     -78.82840     68.16050        -10.66790  25.05692   458   %  2.6240
     459     -78.77368     68.32408        -10.44960  25.27522   459   %  2.6209
     460     -78.82962     68.39546        -10.43417  25.29065   460   %  2.6261
     461     -78.77496     68.55871        -10.21625  25.50857   461   %  2.6231
     462     -78.83053     68.62929        -10.20125  25.52357   462   %  2.6282
     463     -78.77299     68.80032         -9.97267  25.75215   463   %  2.6250
     464     -78.83062     68.87315         -9.95748  25.76734   464   %  2.6301
     465     -78.77302     69.05033         -9.72269  26.00213   465   %  2.6271
     466     -78.83154     69.12368         -9.70786  26.01696   466   %  2.6323
     467     -78.77195     69.30602         -9.46593  26.25889   467   %  2.6292
     468     -78.83160     69.38018         -9.45142  26.27340   468   %  2.6343
     469     -78.76974     69.57439         -9.19534  26.52947   469   %  2.6312
     470     -78.83143     69.65029         -9.18114  26.54368   470   %  2.6364
     471     -78.76585     69.85985         -8.90600  26.81882   471   %  2.6332
     472     -78.83065     69.93870         -8.89196  26.83286   472   %  2.6384
     473     -78.76617     70.15773         -8.60845  27.11637   473   %  2.6355
     474     -78.83176     70.23674         -8.59503  27.12979   474   %  2.6408
     475     -78.76676     70.45677         -8.30999  27.41483   475   %  2.6379
     476     -78.83231     70.53525         -8.29705  27.42776   476   %  2.6430
     477     -78.76538     70.76505         -8.00032  27.72450   477   %  2.6401
     478     -78.83237     70.84484         -7.98753  27.73729   478   %  2.6453
     479     -78.76892     71.07523         -7.69369  28.03113   479   %  2.6427
     480     -78.83459     71.15296         -7.68164  28.04318   480   %  2.6478
     481     -78.77021     71.37945         -7.39076  28.33406   481   %  2.6451
     482     -78.83638     71.45833         -7.37805  28.34677   482   %  2.6503
     483     -78.77402     71.67754         -7.09648  28.62834   483   %  2.6476
     484     -78.83894     71.75517         -7.08377  28.64105   484   %  2.6528
     485     -78.77207     71.97671         -6.79536  28.92946   485   %  2.6498
     486     -78.83838     72.05603         -6.78235  28.94247   486   %  2.6550
     487     -78.77475     72.28481         -6.48994  29.23488   487   %  2.6523
     488     -78.84097     72.36380         -6.47717  29.24765   488   %  2.6576
     489     -78.77209     72.59327         -6.17881  29.54601   489   %  2.6545
     490     -78.84024     72.67459         -6.16565  29.55917   490   %  2.6597
     491     -78.77514     72.91131         -5.86383  29.86099   491   %  2.6570
     492     -78.84200     72.99020         -5.85180  29.87302   492   %  2.6622
     493     -78.77725     73.22354         -5.55371  30.17111   493   %  2.6595
     494     -78.84430     73.30317         -5.54113  30.18369   494   %  2.6648
     495     -78.77406     73.54041         -5.23365  30.49116   495   %  2.6617
     496     -78.84304     73.62207         -5.22096  30.50386   496   %  2.6669
     497     -78.77016     73.88433         -4.88583  30.83899   497   %  2.6639
     498     -78.84176     73.96801         -4.87375  30.85107   498   %  2.6692
     499     -78.76655     74.25214         -4.51441  31.21041   499   %  2.6663
     500     -78.84090     74.33816         -4.50274  31.22208   500   %  2.6716
     501     -78.76784     74.63185         -4.13599  31.58883   501   %  2.6689
     502     -78.84253     74.71767         -4.12486  31.59996   502   %  2.6742
     503     -78.76411     75.01961         -3.74450  31.98031   503   %  2.6713
     504     -78.84144     75.10839         -3.73305  31.99177   504   %  2.6767
     505     -78.76174     75.43145         -3.33029  32.39453   505   %  2.6739
     506     -78.84021     75.52045         -3.31976  32.40506   506   %  2.6792
     507     -78.87214     75.52131         -3.35083  32.37399   507   %  2.6851
     508     -78.84201     75.55564         -3.28636  32.43846   508   %  2.6810
     509     -78.87370     75.61552         -3.25818  32.46664   509   %  2.6866
     510     -78.84276     75.69404         -3.14872  32.57610   510   %  2.6823
     511     -78.87453     75.75073         -3.12380  32.60102   511   %  2.6878
     512     -78.84217     75.83458         -3.00759  32.71723   512   %  2.6837
     513     -78.87531     75.89255         -2.98276  32.74206   513   %  2.6893
     514     -78.84263     75.97685         -2.86578  32.85904   514   %  2.6852
     515     -78.87625     76.03517         -2.84108  32.88374   515   %  2.6908
     516     -78.84288     76.12073         -2.72215  33.00267   516   %  2.6867
     517     -78.87696     76.17871         -2.69825  33.02657   517   %  2.6922
     518     -78.84428     76.26335         -2.58093  33.14389   518   %  2.6884
     519     -78.87811     76.32100         -2.55711  33.16771   519   %  2.6939
     520     -78.84395     76.40765         -2.43631  33.28851   520   %  2.6899
     521     -78.87874     76.46606         -2.41268  33.31214   521   %  2.6954
     522     -78.84539     76.55236         -2.29303  33.43179   522   %  2.6915
     523     -78.87985     76.60988         -2.26996  33.45486   523   %  2.6971
     524     -78.84511     76.69792         -2.14719  33.57763   524   %  2.6931
     525     -78.88054     76.75644         -2.12410  33.60072   525   %  2.6986
     526     -78.84532     76.84657         -1.99875  33.72607   526   %  2.6947
     527     -78.88151     76.90585         -1.97566  33.74916   527   %  2.7002
     528     -78.84521     76.99790         -1.84732  33.87750   528   %  2.6962
     529     -78.88237     77.05847         -1.82390  33.90092   529   %  2.7018
     530     -78.84528     77.15274         -1.69254  34.03227   530   %  2.6978
     531     -78.88293     77.21272         -1.67021  34.05461   531   %  2.7033
     532     -78.84694     77.30595         -1.54099  34.18383   532   %  2.6996
     533     -78.88425     77.36552         -1.51874  34.20608   533   %  2.7051
     534     -78.84809     77.45732         -1.39077  34.33405   534   %  2.7013
     535     -78.88521     77.51688         -1.36833  34.35649   535   %  2.7068
     536     -78.84830     77.61076         -1.23754  34.48728   536   %  2.7029
     537     -78.88615     77.67137         -1.21478  34.51004   537   %  2.7085
     538     -78.85025     77.76350         -1.08674  34.63808   538   %  2.7047
     539     -78.88717     77.82237         -1.06481  34.66001   539   %  2.7102
     540     -78.84991     77.91690         -0.93302  34.79180   540   %  2.7063
     541     -78.88793     77.97710         -0.91082  34.81399   541   %  2.7118
     542     -78.85135     78.07112         -0.78023  34.94459   542   %  2.7080
     543     -78.88895     78.13024         -0.75871  34.96611   543   %  2.7135
     544     -78.85040     78.22774         -0.62266  35.10216   544   %  2.7096
     545     -78.88957     78.28874         -0.60083  35.12399   545   %  2.7151
     546     -78.85023     78.38932         -0.46091  35.26391   546   %  2.7113
     547     -78.89042     78.45118         -0.43924  35.28558   547   %  2.7168
     548     -78.85129     78.55167         -0.29962  35.42519   548   %  2.7130
     549     -78.89144     78.61321         -0.27822  35.44660   549   %  2.7186
     550     -78.85129     78.71555         -0.13575  35.58907   550   %  2.7147
     551     -78.89204     78.77727         -0.11478  35.61004   551   %  2.7202
     552     -78.84989     78.88515          0.03526  35.76008   552   %  2.7164
     553     -78.89255     78.94872          0.05617  35.78098   553   %  2.7219
     554     -78.85129     79.05646          0.20517  35.92999   554   %  2.7182
     555     -78.89365     79.11902          0.22536  35.95018   555   %  2.7237
     556     -78.85222     79.22628          0.37406  36.09888   556   %  2.7200
     557     -78.89482     79.28952          0.39470  36.11952   557   %  2.7256
     558     -78.85279     79.39750          0.54471  36.26953   558   %  2.7218
     559     -78.89566     79.46097          0.56531  36.29013   559   %  2.7274
     560     -78.85276     79.57176          0.71900  36.44382   560   %  2.7236
     561     -78.89619     79.63514          0.73894  36.46376   561   %  2.7291
     562     -78.85401     79.74637          0.89236  36.61718   562   %  2.7254
     563     -78.89750     79.80977          0.91226  36.63708   563   %  2.7310
     564     -78.85401     79.92179          1.06777  36.79259   564   %  2.7272
     565     -78.89793     79.98516          1.08723  36.81205   565   %  2.7327
     566     -78.85458     80.09997          1.24540  36.97022   566   %  2.7291
     567     -78.89914     80.16409          1.26495  36.98977   567   %  2.7346
     568     -78.85558     80.27780          1.42222  37.14704   568   %  2.7310
     569     -78.90008     80.34174          1.44166  37.16648   569   %  2.7365
     570     -78.85436     80.46056          1.60620  37.33102   570   %  2.7327
     571     -78.90039     80.52592          1.62553  37.35035   571   %  2.7382
     572     -78.85457     80.64819          1.79362  37.51844   572   %  2.7346
     573     -78.90141     80.71418          1.81277  37.53759   573   %  2.7402
     574     -78.85699     80.83306          1.97607  37.70089   574   %  2.7366
     575     -78.90269     80.89735          1.99466  37.71948   575   %  2.7421
     576     -78.85896     81.01392          2.15496  37.87978   576   %  2.7386
     577     -78.90407     81.07785          2.17379  37.89860   577   %  2.7441
     578     -78.85801     81.19761          2.33960  38.06442   578   %  2.7404
     579     -78.90427     81.26261          2.35834  38.08316   579   %  2.7459
     580     -78.85665     81.38989          2.53324  38.25806   580   %  2.7422
     581     -78.90458     81.45601          2.55144  38.27626   581   %  2.7477
     582     -78.85702     81.58588          2.72886  38.45368   582   %  2.7441
     583     -78.90571     81.65270          2.74699  38.47180   583   %  2.7497
     584     -78.85886     81.78004          2.92117  38.64599   584   %  2.7461
     585     -78.90687     81.84582          2.93895  38.66377   585   %  2.7517
     586     -78.85872     81.97561          3.11689  38.84171   586   %  2.7481
     587     -78.90735     82.04184          3.13449  38.85931   587   %  2.7536
     588     -78.85697     82.17902          3.32205  39.04687   588   %  2.7499
     589     -78.90751     82.24697          3.33946  39.06428   589   %  2.7554
     590     -78.85512     82.39219          3.53707  39.26189   590   %  2.7518
     591     -78.90753     82.46149          3.55396  39.27878   591   %  2.7573
     592     -78.85720     82.60741          3.75020  39.47502   592   %  2.7540
     593     -78.90907     82.67551          3.76644  39.49126   593   %  2.7595
     594     -78.85908     82.81753          3.95845  39.68327   594   %  2.7561
     595     -78.91052     82.88549          3.97497  39.69979   595   %  2.7617
     596     -78.85900     83.02906          4.17007  39.89489   596   %  2.7581
     597     -78.91127     83.09823          4.18696  39.91178   597   %  2.7637
     598     -78.86051     83.24247          4.38196  40.10678   598   %  2.7602
     599     -78.91234     83.31067          4.39833  40.12315   599   %  2.7658
     600     -78.85956     83.45906          4.59950  40.32432   600   %  2.7622
     601     -78.91263     83.52852          4.61590  40.34071   601   %  2.7677
     602     -78.85844     83.68394          4.82550  40.55032   602   %  2.7642
     603     -78.91330     83.75537          4.84207  40.56689   603   %  2.7698
     604     -78.86091     83.90853          5.04762  40.77244   604   %  2.7664
     605     -78.91459     83.97793          5.06334  40.78816   605   %  2.7720
     606     -78.86219     84.13039          5.26820  40.99302   606   %  2.7686
     607     -78.91608     84.20054          5.28446  41.00928   607   %  2.7742
     608     -78.86172     84.35449          5.49277  41.21759   608   %  2.7706
     609     -78.91659     84.42588          5.50929  41.23411   609   %  2.7763
     610     -78.86485     84.57833          5.71348  41.43830   610   %  2.7729
     611     -78.91808     84.64711          5.72903  41.45385   611   %  2.7785
     612     -78.86354     84.80301          5.93947  41.66429   612   %  2.7749
     613     -78.91843     84.87407          5.95563  41.68045   613   %  2.7805
     614     -78.86423     85.03319          6.16896  41.89378   614   %  2.7771
     615     -78.91927     85.10382          6.18455  41.90937   615   %  2.7826
     616     -78.86365     85.26702          6.40337  42.12819   616   %  2.7791
     617     -78.91956     85.33828          6.41872  42.14354   617   %  2.7847
     618     -78.86577     85.50215          6.63638  42.36119   618   %  2.7814
     619     -78.92111     85.57238          6.65127  42.37609   619   %  2.7870
     620     -78.86445     85.73886          6.87442  42.59924   620   %  2.7835
     621     -78.92114     85.81066          6.88953  42.61435   621   %  2.7890
     622     -78.86038     85.99194          7.13156  42.85638   622   %  2.7854
     623     -78.92021     86.06674          7.14653  42.87135   623   %  2.7910
     624     -78.85720     86.26375          7.40656  43.13138   624   %  2.7875
     625     -78.91949     86.34030          7.42081  43.14563   625   %  2.7930
     626     -78.85903     86.54194          7.68291  43.40773   626   %  2.7899
     627     -78.92119     86.61773          7.69654  43.42136   627   %  2.7955
     628     -78.86015     86.81564          7.95549  43.68031   628   %  2.7923
     629     -78.92257     86.89210          7.96953  43.69435   629   %  2.7979
     630     -78.86217     87.08737          8.22520  43.95002   630   %  2.7947
     631     -78.92375     87.16264          8.23890  43.96372   631   %  2.8003
     632     -78.86274     87.35998          8.49725  44.22207   632   %  2.7970
     633     -78.92495     87.43626          8.51131  44.23613   633   %  2.8026
     634     -78.86522     87.63006          8.76484  44.48966   634   %  2.7994
     635     -78.92628     87.70471          8.77843  44.50325   635   %  2.8050
     636     -78.86276     87.90591          9.04315  44.76797   636   %  2.8015
     637     -78.92591     87.98305          9.05713  44.78195   637   %  2.8071
     638     -78.85954     88.19905          9.33952  45.06433   638   %  2.8037
     639     -78.92484     88.27774          9.35289  45.07771   639   %  2.8093
     640     -78.85859     88.50719          9.64860  45.37342   640   %  2.8060
     641     -78.92488     88.58604          9.66115  45.38597   641   %  2.8116
     642     -78.85948     88.81975          9.96028  45.68510   642   %  2.8085
     643     -78.92648     88.89936          9.97288  45.69770   643   %  2.8142
     644     -78.86065     89.12926         10.26861  45.99343   644   %  2.8110
     645     -78.92756     89.20876         10.28120  46.00602   645   %  2.8166
     646     -78.86343     89.43656         10.57314  46.29796   646   %  2.8136
     647     -78.92922     89.51463         10.58540  46.31022   647   %  2.8192
     648     -78.85807     89.75400         10.89593  46.62075   648   %  2.8157
     649     -78.92770     89.83676         10.90906  46.63388   649   %  2.8214
     650     -78.85766     90.09097         11.23331  46.95813   650   %  2.8182
     651     -78.92787     90.17324         11.24537  46.97019   651   %  2.8238
     652     -78.85167     90.44646         11.59479  47.31961   652   %  2.8204
     653     -78.92529     90.53208         11.60679  47.33161   653   %  2.8260
     654     -78.84761     90.83428         11.98667  47.71149   654   %  2.8228
     655     -78.92375     90.92157         11.99782  47.72264   655   %  2.8284
     656     -78.84491     91.24426         12.39935  48.12417   656   %  2.8253
     657     -78.92304     91.33305         12.41001  48.13483   657   %  2.8309
     658     -78.83920     91.67872         12.83952  48.56434   658   %  2.8278
     659     -78.92091     91.77109         12.85018  48.57500   659   %  2.8335
     660     -78.95497     91.77522         12.82025  48.54507   660   %  2.8396
     661     -78.92289     91.81070         12.88781  48.61263   661   %  2.8352
     662     -78.95627     91.86974         12.91347  48.63829   662   %  2.8410
     663     -78.92289     91.95242         13.02953  48.75435   663   %  2.8366
     664     -78.95699     92.01034         13.05335  48.77817   664   %  2.8424
     665     -78.92293     92.09725         13.17432  48.89914   665   %  2.8381
     666     -78.95761     92.15535         13.19774  48.92256   666   %  2.8439
     667     -78.92272     92.24393         13.32121  49.04603   667   %  2.8396
     668     -78.95841     92.30357         13.34516  49.06998   668   %  2.8455
     669     -78.92310     92.39295         13.46985  49.19467   669   %  2.8412
     670     -78.95905     92.45251         13.49346  49.21828   670   %  2.8470
     671     -78.92292     92.54408         13.62116  49.34598   671   %  2.8427
     672     -78.95959     92.60380         13.64422  49.36904   672   %  2.8485
     673     -78.92305     92.69668         13.77363  49.49845   673   %  2.8443
     674     -78.96017     92.75612         13.79596  49.52078   674   %  2.8501
     675     -78.92176     92.85294         13.93118  49.65600   675   %  2.8458
     676     -78.96061     92.91423         13.95361  49.67843   676   %  2.8516
     677     -78.92292     93.01066         14.08774  49.81256   677   %  2.8475
     678     -78.96144     93.07082         14.10939  49.83420   678   %  2.8533
     679     -78.92426     93.16567         14.24141  49.96623   679   %  2.8492
     680     -78.96243     93.22570         14.26327  49.98809   680   %  2.8550
     681     -78.92317     93.32393         14.40076  50.12558   681   %  2.8508
     682     -78.96266     93.38517         14.42252  50.14734   682   %  2.8565
     683     -78.92198     93.48869         14.56671  50.29153   683   %  2.8523
     684     -78.96298     93.55082         14.58784  50.31266   684   %  2.8581
     685     -78.92156     93.65695         14.73539  50.46021   685   %  2.8540
     686     -78.96340     93.71922         14.75582  50.48064   686   %  2.8597
     687     -78.92030     93.82966         14.90937  50.63419   687   %  2.8556
     688     -78.96372     93.89338         14.92965  50.65447   688   %  2.8613
     689     -78.92104     94.00459         15.08355  50.80837   689   %  2.8573
     690     -78.96458     94.06800         15.10343  50.82825   690   %  2.8631
     691     -78.92268     94.17701         15.25433  50.97915   691   %  2.8592
     692     -78.96557     94.23964         15.27407  50.99889   692   %  2.8649
     693     -78.92158     94.35200         15.43041  51.15523   693   %  2.8608
     694     -78.96574     94.41593         15.45019  51.17501   694   %  2.8665
     695     -78.92256     94.52966         15.60709  51.33191   695   %  2.8626
     696     -78.96665     94.59298         15.62633  51.35115   696   %  2.8684
     697     -78.92295     94.70659         15.78364  51.50846   697   %  2.8644
     698     -78.96749     94.77081         15.80332  51.52814   698   %  2.8702
     699     -78.92439     94.88319         15.95879  51.68361   699   %  2.8662
     700     -78.96826     94.94621         15.97795  51.70277   700   %  2.8719
     701     -78.92503     95.05913         16.13410  51.85892   701   %  2.8680
     702     -78.96921     95.12290         16.15368  51.87850   702   %  2.8738
     703     -78.92478     95.23737         16.31259  52.03741   703   %  2.8697
     704     -78.96970     95.30205         16.33235  52.05717   704   %  2.8755
     705     -78.92566     95.41742         16.49176  52.21658   705   %  2.8715
     706     -78.97049     95.48162         16.51114  52.23596   706   %  2.8772
     707     -78.92486     95.59987         16.67500  52.39982   707   %  2.8731
     708     -78.97068     95.66489         16.69421  52.41903   708   %  2.8789
     709     -78.92357     95.78874         16.86516  52.58998   709   %  2.8748
     710     -78.97078     95.85465         16.88387  52.60869   710   %  2.8805
     711     -78.92423     95.97997         17.05574  52.78056   711   %  2.8766
     712     -78.97173     96.04597         17.07424  52.79906   712   %  2.8824
     713     -78.92475     96.17065         17.24590  52.97072   713   %  2.8784
     714     -78.97247     96.23704         17.26457  52.98939   714   %  2.8842
     715     -78.92689     96.35940         17.43252  53.15734   715   %  2.8804
     716     -78.97345     96.42405         17.45061  53.17543   716   %  2.8861
     717     -78.92469     96.55181         17.62712  53.35194   717   %  2.8820
     718     -78.97342     96.61925         17.64583  53.37065   718   %  2.8877
     719     -78.92224     96.75570         17.83346  53.55827   719   %  2.8836
     720     -78.97291     96.82427         17.85136  53.57618   720   %  2.8893
     721     -78.92176     96.96665         18.04489  53.76971   721   %  2.8854
     722     -78.97323     97.03516         18.06193  53.78675   722   %  2.8912
     723     -78.92091     97.18094         18.26004  53.98486   723   %  2.8872
     724     -78.97343     97.25026         18.27683  54.00165   724   %  2.8930
     725     -78.92033     97.40017         18.47984  54.20466   725   %  2.8891
     726     -78.97347     97.46944         18.49597  54.22079   726   %  2.8948
     727     -78.91979     97.62421         18.70442  54.42924   727   %  2.8910
     728     -78.97429     97.69519         18.72090  54.44572   728   %  2.8968
     729     -78.91825     97.85332         18.93507  54.65989   729   %  2.8928
     730     -78.97369     97.92467         18.95097  54.67579   730   %  2.8985
     731     -78.91398     98.09863         19.18466  54.90947   731   %  2.8945
     732     -78.97294     98.17363         19.20069  54.92551   732   %  2.9003
     733     -78.91283     98.35529         19.44246  55.16728   733   %  2.8964
     734     -78.97247     98.42970         19.45722  55.18204   734   %  2.9021
     735     -78.90962     98.62406         19.71444  55.43926   735   %  2.8983
     736     -78.97135     98.70001         19.72866  55.45348   736   %  2.9040
     737     -78.90986     98.90221         19.99235  55.71716   737   %  2.9004
     738     -78.97243     98.97867         20.00624  55.73106   738   %  2.9062
     739     -78.90682     99.18545         20.27863  56.00345   739   %  2.9023
     740     -78.97142     99.26407         20.29265  56.01747   740   %  2.9081
     741     -78.90381     99.48689         20.58308  56.30790   741   %  2.9043
     742     -78.97025     99.56663         20.59637  56.32119   742   %  2.9100
     743     -78.89815     99.81068         20.91253  56.63735   743   %  2.9062
     744     -78.96772     99.89296         20.92524  56.65005   744   %  2.9119
     745     -78.89596    100.15796         21.26200  56.98682   745   %  2.9084
     746     -78.96709    100.24087         21.27377  56.99859   746   %  2.9141
     747     -78.89369    100.51729         21.62360  57.34842   747   %  2.9106
     748     -78.96654    100.60168         21.63514  57.35996   748   %  2.9163
     749     -78.89161    100.88988         21.99826  57.72308   749   %  2.9128
     750     -78.96556    100.97484         22.00928  57.73410   750   %  2.9185
     751     -78.89194    101.27383         22.38189  58.10671   751   %  2.9152
     752     -78.96663    101.35936         22.39273  58.11755   752   %  2.9210
     753     -78.89340    101.65384         22.76043  58.48525   753   %  2.9177
     754     -78.96782    101.73904         22.77122  58.49604   754   %  2.9234
     755     -78.89010    102.04099         23.15089  58.87571   755   %  2.9199
     756     -78.96619    102.12796         23.16176  58.88658   756   %  2.9256
     757     -78.88619    102.45407         23.56788  59.29270   757   %  2.9221
     758     -78.96529    102.54409         23.57880  59.30362   758   %  2.9279
     759     -78.88378    102.88321         23.99942  59.72424   759   %  2.9244
     760     -78.96367    102.97322         24.00955  59.73437   760   %  2.9302
     761     -78.99703    102.97673         23.97970  59.70452   761   %  2.9364
     762     -78.96626    103.01147         24.04521  59.77003   762   %  2.9317
     763     -78.99820    103.06969         24.07150  59.79631   763   %  2.9376
     764     -78.96598    103.14941         24.18343  59.90825   764   %  2.9329
     765     -78.99876    103.20745         24.20869  59.93351   765   %  2.9389
     766     -78.96618    103.29067         24.32449  60.04931   766   %  2.9342
     767     -78.99910    103.34790         24.34880  60.07362   767   %  2.9401
     768     -78.96655    103.43104         24.46449  60.18931   768   %  2.9356
     769     -78.99979    103.48906         24.48927  60.21409   769   %  2.9415
     770     -78.96671    103.57269         24.60598  60.33080   770   %  2.9369
     771     -79.00021    103.63092         24.63072  60.35554   771   %  2.9428
     772     -78.96750    103.71441         24.74691  60.47173   772   %  2.9383
     773     -79.00080    103.77220         24.77140  60.49622   773   %  2.9442
     774     -78.96879    103.85385         24.88506  60.60988   774   %  2.9397
     775     -79.00140    103.91072         24.90931  60.63413   775   %  2.9456
     776     -78.96854    103.99384         25.02530  60.75012   776   %  2.9410
     777     -79.00193    104.05230         25.05038  60.77519   777   %  2.9470
     778     -78.96773    104.13847         25.17073  60.89555   778   %  2.9422
     779     -79.00204    104.19683         25.19479  60.91961   779   %  2.9481
     780     -78.96827    104.28313         25.31486  61.03968   780   %  2.9436
     781     -79.00277    104.34174         25.33897  61.06379   781   %  2.9496
     782     -78.96913    104.42657         25.45745  61.18227   782   %  2.9450
     783     -79.00324    104.48461         25.48137  61.20619   783   %  2.9509
     784     -78.96873    104.57158         25.60285  61.32767   784   %  2.9463
     785     -79.00353    104.62990         25.62637  61.35119   785   %  2.9521
     786     -78.96914    104.71706         25.74793  61.47275   786   %  2.9476
     787     -79.00412    104.77555         25.77143  61.49625   787   %  2.9535
     788     -78.97016    104.86133         25.89117  61.61599   788   %  2.9490
     789     -79.00465    104.91904         25.91439  61.63921   789   %  2.9549
     790     -78.97074    105.00469         26.03396  61.75878   790   %  2.9504
     791     -79.00523    105.06265         26.05742  61.78224   791   %  2.9563
     792     -78.97062    105.14950         26.17888  61.90370   792   %  2.9517
     793     -79.00564    105.20823         26.20259  61.92741   793   %  2.9576
     794     -78.97029    105.29708         26.32680  62.05161   794   %  2.9530
     795     -79.00605    105.35669         26.35063  62.07545   795   %  2.9589
     796     -78.97164    105.44392         26.47228  62.19710   796   %  2.9544
     797     -79.00659    105.50194         26.49535  62.22017   797   %  2.9603
     798     -78.97055    105.59198         26.62143  62.34625   798   %  2.9556
     799     -79.00684    105.65172         26.64488  62.36970   799   %  2.9615
     800     -78.96929    105.74563         26.77634  62.50116   800   %  2.9569
     801     -79.00685    105.80580         26.79895  62.52377   801   %  2.9627
     802     -78.96787    105.90386         26.93599  62.66081   802   %  2.9581
     803     -79.00703    105.96535         26.95832  62.68314   803   %  2.9640
     804     -78.96638    106.06718         27.10080  62.82562   804   %  2.9593
     805     -79.00700    106.12960         27.12260  62.84742   805   %  2.9652
     806     -78.96436    106.23706         27.27270  62.99752   806   %  2.9606
     807     -79.00658    106.29984         27.29326  63.01808   807   %  2.9664
     808     -78.96413    106.40990         27.44576  63.17058   808   %  2.9620
     809     -79.00697    106.47254         27.46557  63.19039   809   %  2.9678
     810     -78.96117    106.58837         27.62720  63.35201   810   %  2.9632
     811     -79.00669    106.65422         27.64753  63.37235   811   %  2.9691
     812     -78.96237    106.77050         27.80813  63.53295   812   %  2.9648
     813     -79.00718    106.83433         27.82716  63.55198   813   %  2.9706
     814     -78.96211    106.95150         27.98938  63.71420   814   %  2.9662
     815     -79.00746    107.01594         28.00848  63.73330   815   %  2.9721
     816     -78.96108    107.13639         28.17531  63.90013   816   %  2.9676
     817     -79.00773    107.20248         28.19475  63.91957   817   %  2.9735
     818     -78.95943    107.32764         28.36821  64.09303   818   %  2.9690
     819     -79.00724    107.39419         28.38695  64.11177   819   %  2.9748
     820     -78.95936    107.52315         28.56379  64.28861   820   %  2.9705
     821     -79.00746    107.58907         28.58161  64.30643   821   %  2.9763
     822     -78.95763    107.72205         28.76442  64.48923   822   %  2.9719
     823     -79.00733    107.78969         28.78236  64.50718   823   %  2.9778
     824     -78.95420    107.93183         28.97763  64.70245   824   %  2.9732
     825     -79.00647    108.00181         28.99534  64.72016   825   %  2.9791
     826     -78.95529    108.14651         29.19122  64.91604   826   %  2.9749
     827     -79.00722    108.21524         29.20802  64.93284   827   %  2.9807
     828     -78.95147    108.36650         29.41502  65.13984   828   %  2.9762
     829     -79.00585    108.43769         29.43184  65.15666   829   %  2.9820
     830     -78.94995    108.59950         29.64955  65.37437   830   %  2.9777
     831     -79.00542    108.67063         29.66520  65.39002   831   %  2.9835
     832     -78.94997    108.83510         29.88513  65.60994   832   %  2.9794
     833     -79.00567    108.90589         29.90022  65.62504   833   %  2.9852
     834     -78.94844    109.07443         30.12600  65.85081   834   %  2.9809
     835     -79.00594    109.14769         30.14175  65.86657   835   %  2.9868
     836     -78.94554    109.32294         30.37740  66.10222   836   %  2.9824
     837     -79.00451    109.39705         30.39254  66.11736   837   %  2.9882
     838     -78.94275    109.58708         30.64433  66.36914   838   %  2.9839
     839     -79.00379    109.66276         30.65896  66.38378   839   %  2.9898
     840     -78.93995    109.86217         30.92223  66.64705   840   %  2.9855
     841     -79.00288    109.93936         30.93648  66.66130   841   %  2.9913
     842     -78.94103    110.14241         31.20137  66.92619   842   %  2.9873
     843     -79.00375    110.21883         31.21508  66.93990   843   %  2.9932
     844     -78.93785    110.42670         31.48885  67.21367   844   %  2.9889
     845     -79.00262    110.50553         31.50290  67.22772   845   %  2.9948
     846     -78.93402    110.72908         31.79506  67.51988   846   %  2.9905
     847     -79.00087    110.80933         31.80846  67.53327   847   %  2.9963
     848     -78.93157    111.04829         32.11672  67.84154   848   %  2.9921
     849     -78.99998    111.12945         32.12947  67.85429   849   %  2.9980
     850     -78.92572    111.38598         32.46025  68.18507   850   %  2.9937
     851     -78.99698    111.46952         32.47254  68.19736   851   %  2.9995
     852     -78.92583    111.74337         32.81754  68.54236   852   %  2.9956
     853     -78.99773    111.82681         32.82909  68.55390   853   %  3.0015
     854     -78.92567    112.09769         33.17203  68.89685   854   %  2.9975
     855     -78.99748    112.18079         33.18331  68.90813   855   %  3.0033


           POTENTIAL ENERGY HAS STOPPED DROPPING


 **********************
 *                    *
 * JOB ENDED NORMALLY *
 *                    *
 **********************



 TOTAL JOB TIME:             0.35 SECONDS

 == MOPAC DONE ==
