 *******************************************************************************
 ** Site#:  999         For non-commercial use only           Version 21.129  **
 *******************************************************************************
 ** Cite this program as: MOPAC2016, Version: 21.129 , James J. P. Stewart,   **
 ** Stewart Computational Chemistry, web-site: HTTP://OpenMOPAC.net.          **
 *******************************************************************************
 **                                                                           **
 **                                MOPAC2016                                  **
 **                                                                           **
 *******************************************************************************

                              PM7 CALCULATION RESULTS

 *******************************************************************************
 *  CALCULATION DONE:                                Sun Nov 20 12:22:50 2022  *
 *  PM7        - The PM7 Hamiltonian to be used
 *
 *
 *
 *                 CHARGE ON SYSTEM = 0
 *
 *
 *
 *  IRC=N      - INTRINSIC REACTION COORDINATE -1 DEFINED
 *  PRECISE    - TIGHTER CRITERIA TO BE USED
 *  THREADS=1  - MULTI-THREADING NOT USED
 *  T=         - A TIME OF 172800.0 SECONDS REQUESTED
 *  DUMP=N     - RESTART FILE WRITTEN EVERY 7200.0 SECONDS REQUESTED
 *  CYCLES=    - DO A MAXIMUM OF 5000 STEPS
 *  OLDENS     - INITIAL DENSITY MATRIX READ OFF DISK
 *******************************************************************************
   pm7 threads=1 charge=0 irc=-1 oldens precise cycles=5000
 title
 title
   ATOM   CHEMICAL          X               Y               Z
  NUMBER   SYMBOL      (ANGSTROMS)     (ANGSTROMS)     (ANGSTROMS)
 
     1       C         -0.48668901  *   0.67132621  *   1.44242234  *
     2       O         -0.98119152  *   0.82390546  *   2.47811898  *
     3       O          0.69316984  *   0.33179645  *   0.82995787  *
     4       H          1.77617438  *   0.61045794  *   0.82409672  *
     5       H          1.47313367  *  -0.46946770  *   0.84040658  *
 


          CARTESIAN COORDINATES 

    NO.       ATOM           X           Y           Z

     1         C         -0.4867      0.6713      1.4424
     2         O         -0.9812      0.8239      2.4781
     3         O          0.6932      0.3318      0.8300
     4         H          1.7762      0.6105      0.8241
     5         H          1.4731     -0.4695      0.8404

 General Reference for PM7:
 "Optimization of Parameters for Semiempirical Methods VI: More Modifications to the 
 NDDO Approximations and Re-optimization of Parameters", J. J. P. Stewart, J. Mol. Mod., 1:32, 19 (2013)
 https://link.springer.com/article/10.1007/s00894-012-1667-x

           Empirical Formula: C H2 O2  =     5 atoms



      MOLECULAR POINT GROUP   :   Cs  


      RHF CALCULATION, NO. OF DOUBLY OCCUPIED LEVELS = 9



          HEAT OF FORMATION =     -44.917740 KCALS/MOLE


          GRADIENT NORM =   0.04470

          MOLECULAR WEIGHT =   46.03


          ESTIMATED TIME TO COMPLETE CALCULATION =        0.00 SECONDS

    FOR POINT-GROUP Cs   THERE ARE   2 UNIQUE SYMMETRY FUNCTIONS.

 STEP:   1 TIME =     0.00 SECS, INTEGRAL =      0.00 TIME LEFT: 172800.00
 STEP:   2 TIME =     0.00 SECS, INTEGRAL =      0.00 TIME LEFT: 172800.00
 STEP:   3 TIME =     0.00 SECS, INTEGRAL =      0.01 TIME LEFT: 172799.99
 STEP:   4 TIME =     0.00 SECS, INTEGRAL =      0.01 TIME LEFT: 172799.99
 STEP:   5 TIME =     0.00 SECS, INTEGRAL =      0.01 TIME LEFT: 172799.99
 STEP:   6 TIME =     0.00 SECS, INTEGRAL =      0.02 TIME LEFT: 172799.98
 STEP:   7 TIME =     0.00 SECS, INTEGRAL =      0.02 TIME LEFT: 172799.98
 STEP:   8 TIME =     0.00 SECS, INTEGRAL =      0.02 TIME LEFT: 172799.98
 STEP:   9 TIME =     0.00 SECS, INTEGRAL =      0.02 TIME LEFT: 172799.98
 STEP:  10 TIME =     0.00 SECS, INTEGRAL =      0.02 TIME LEFT: 172799.98
 STEP:  11 TIME =     0.00 SECS, INTEGRAL =      0.02 TIME LEFT: 172799.98
 STEP:  12 TIME =     0.00 SECS, INTEGRAL =      0.03 TIME LEFT: 172799.97
 STEP:  13                       INTEGRAL =      0.03 TIME LEFT: 172799.97
 STEP:  14                       INTEGRAL =      0.03 TIME LEFT: 172799.97
 STEP:  15                       INTEGRAL =      0.03 TIME LEFT: 172799.97
  Stopping critera: r_ij>5*r_ij(0)
 
           INITIAL VELOCITY IN DRC (Angstroms/Femtosecond)
        -0.02581         0.04870         0.00003
        -0.00921        -0.00810        -0.00003
         0.04886        -0.06528         0.00003
        -0.16096         0.29213        -0.26440
        -0.16091         0.29221         0.26408
 
  Deltat    =   0.24 fs
  Maxcyc    =      5000
  Jloop_lim =      5000
 
  Initial distance matrix
  Bond#     i     j    Ini_value(A)
      1     1     2          1.158
      2     1     3          1.372
      3     1     4          2.347
      4     1     5          2.346
      5     2     3          2.400
      6     2     4          3.222
      7     2     5          3.222
      8     3     4          1.118
      9     3     5          1.118
     10     4     5          1.122
 
 


     POINT   POTENTIAL  +  ENERGY LOST   =   TOTAL      ERROR    REF%   MOVEMENT
       1     -44.91774      0.00000        -44.91774   0.00000     1   %  0.0000
       2     -44.91799      0.00000        -44.91799  -0.00025     2   %  0.0022
       3     -44.91875      0.00000        -44.91875  -0.00101     3   %  0.0044
       4     -44.93349      0.00000        -44.93349  -0.01575     4   %  0.0176
       5     -44.96526      0.00000        -44.96526  -0.03177     5   %  0.0308
       6     -45.01378      0.10815        -44.90564   0.02785     6   %  0.0440
       7     -45.07407      0.17275        -44.90132   0.03217     7   %  0.0568
       8     -45.15495      0.25562        -44.89932   0.03416     8   %  0.0703
       9     -45.24998      0.35253        -44.89745   0.03604     9   %  0.0836
      10     -45.36028      0.46488        -44.89540   0.03809    10   %  0.0970
      11     -45.48395      0.59063        -44.89331   0.04017    11   %  0.1104
      12     -45.61927      0.72802        -44.89125   0.04224    12   %  0.1237
      13     -45.76650      0.87724        -44.88926   0.04423    13   %  0.1369
      14     -45.92609      1.03876        -44.88733   0.04616    14   %  0.1502
      15     -46.09855      1.21311        -44.88543   0.04805    15   %  0.1636
      16     -46.28040      1.39682        -44.88358   0.04991    16   %  0.1769
      17     -46.47124      1.58941        -44.88183   0.05166    17   %  0.1902
      18     -46.67080      1.79062        -44.88017   0.05331    18   %  0.2035
      19     -46.87920      2.00059        -44.87861   0.05487    19   %  0.2169
      20     -47.09683      2.21970        -44.87714   0.05635    20   %  0.2303
      21     -47.32401      2.44827        -44.87573   0.05775    21   %  0.2438
      22     -47.55605      2.68164        -44.87441   0.05908    22   %  0.2573
      23     -47.79342      2.92021        -44.87321   0.06028    23   %  0.2707
      24     -48.03678      3.16466        -44.87211   0.06138    24   %  0.2841
      25     -48.28637      3.41526        -44.87111   0.06238    25   %  0.2976
      26     -48.54220      3.67200        -44.87020   0.06329    26   %  0.3113
      27     -48.79964      3.93026        -44.86938   0.06411    27   %  0.3248
      28     -49.06156      4.19288        -44.86868   0.06481    28   %  0.3384
      29     -49.32556      4.45749        -44.86807   0.06542    29   %  0.3519
      30     -49.59414      4.72658        -44.86756   0.06593    30   %  0.3656
      31     -49.86367      4.99652        -44.86715   0.06634    31   %  0.3793
      32     -50.13402      5.26718        -44.86684   0.06665    32   %  0.3929
      33     -50.40582      5.53919        -44.86663   0.06686    33   %  0.4066
      34     -50.68115      5.81464        -44.86651   0.06698    34   %  0.4204
      35     -50.95500      6.08851        -44.86649   0.06700    35   %  0.4342
      36     -51.33696      6.47065        -44.86631   0.06718    36   %  0.4535
      37     -51.61167      6.74506        -44.86661   0.06688    37   %  0.4675
      38     -51.88537      7.01841        -44.86696   0.06653    38   %  0.4814
      39     -52.15958      7.29223        -44.86735   0.06614    39   %  0.4955
      40     -52.43293      7.56509        -44.86784   0.06565    40   %  0.5097
      41     -52.70692      7.83850        -44.86842   0.06507    41   %  0.5240
      42     -52.97851      8.10940        -44.86911   0.06438    42   %  0.5383
      43     -53.24616      8.37627        -44.86989   0.06360    43   %  0.5526
      44     -53.51350      8.64276        -44.87074   0.06275    44   %  0.5670
      45     -53.78300      8.91131        -44.87169   0.06179    45   %  0.5817
      46     -54.04990      9.17713        -44.87277   0.06072    46   %  0.5965
      47     -54.31296      9.43903        -44.87393   0.05955    47   %  0.6112
      48     -54.57666      9.70149        -44.87517   0.05832    48   %  0.6261
      49     -54.84262      9.96610        -44.87652   0.05697    49   %  0.6412
      50     -55.10894     10.23093        -44.87801   0.05548    50   %  0.6566
      51     -55.37307     10.49348        -44.87960   0.05389    51   %  0.6719
      52     -55.64100     10.75975        -44.88126   0.05223    52   %  0.6875
      53     -55.91165     11.02859        -44.88306   0.05043    53   %  0.7033
      54     -56.19008     11.30511        -44.88497   0.04852    54   %  0.7194
      55     -56.47895     11.59190        -44.88705   0.04644    55   %  0.7359
      56     -56.77762     11.88831        -44.88931   0.04418    56   %  0.7526
      57     -57.08668     12.19501        -44.89168   0.04181    57   %  0.7694
      58     -57.41264     12.51853        -44.89411   0.03937    58   %  0.7863
      59     -57.75971     12.86305        -44.89665   0.03683    59   %  0.8034
      60     -58.12343     13.22420        -44.89923   0.03426    60   %  0.8202
      61     -58.49690     13.59525        -44.90165   0.03184    61   %  0.8362
      62     -58.88032     13.97653        -44.90380   0.02969    62   %  0.8516
      63     -59.26081     14.35512        -44.90569   0.02779    63   %  0.8658
      64     -59.63419     14.72694        -44.90725   0.02624    64   %  0.8791
      65     -60.00268     15.09413        -44.90855   0.02494    65   %  0.8916
      66     -60.37190     15.46222        -44.90968   0.02381    66   %  0.9036
      67     -60.73259     15.82191        -44.91068   0.02281    67   %  0.9151
      68     -61.08673     16.17523        -44.91150   0.02199    68   %  0.9260
      69     -61.44129     16.52907        -44.91222   0.02127    69   %  0.9368
      70     -61.78656     16.87371        -44.91285   0.02064    70   %  0.9472
      71     -62.13217     17.21880        -44.91337   0.02012    71   %  0.9574
      72     -62.47698     17.56314        -44.91384   0.01965    72   %  0.9675
      73     -62.81869     17.90445        -44.91425   0.01924    73   %  0.9774
      74     -63.15683     18.24224        -44.91459   0.01890    74   %  0.9871
      75     -63.49240     18.57752        -44.91489   0.01860    75   %  0.9966
      76     -63.83065     18.91550        -44.91515   0.01834    76   %  1.0061
      77     -64.16486     19.24948        -44.91538   0.01810    77   %  1.0155
      78     -64.49923     19.58364        -44.91559   0.01790    78   %  1.0248
      79     -64.83615     19.92036        -44.91579   0.01770    79   %  1.0340
      80     -65.16843     20.25245        -44.91598   0.01751    80   %  1.0431
      81     -65.49907     20.58291        -44.91616   0.01733    81   %  1.0522
      82     -65.83001     20.91367        -44.91634   0.01715    82   %  1.0611
      83     -66.16310     21.24657        -44.91654   0.01695    83   %  1.0701
      84     -66.49559     21.57884        -44.91674   0.01674    84   %  1.0791
      85     -66.82208     21.90511        -44.91697   0.01652    85   %  1.0878
      86     -67.15159     22.23439        -44.91720   0.01629    86   %  1.0966
      87     -67.47398     22.55651        -44.91747   0.01602    87   %  1.1053
      88     -67.79866     22.88091        -44.91775   0.01574    88   %  1.1140
      89     -68.11899     23.20091        -44.91808   0.01541    89   %  1.1226
      90     -68.43599     23.51757        -44.91842   0.01507    90   %  1.1312
      91     -68.75275     23.83395        -44.91880   0.01469    91   %  1.1398
      92     -69.06609     24.14687        -44.91922   0.01427    92   %  1.1484
      93     -69.37786     24.45818        -44.91968   0.01381    93   %  1.1570
      94     -69.68216     24.76199        -44.92017   0.01331    94   %  1.1655
      95     -69.98300     25.06232        -44.92069   0.01280    95   %  1.1740
      96     -70.28031     25.35906        -44.92125   0.01224    96   %  1.1825
      97     -70.57354     25.65170        -44.92184   0.01164    97   %  1.1910
      98     -70.86412     25.94164        -44.92248   0.01101    98   %  1.1996
      99     -71.14881     26.22566        -44.92316   0.01033    99   %  1.2081
     100     -71.42834     26.50448        -44.92386   0.00963   100   %  1.2167
     101     -71.70296     26.77836        -44.92460   0.00889   101   %  1.2253
     102     -71.97636     27.05099        -44.92537   0.00812   102   %  1.2340
     103     -72.24192     27.31571        -44.92621   0.00728   103   %  1.2427
     104     -72.50451     27.57747        -44.92705   0.00644   104   %  1.2516
     105     -72.75816     27.83021        -44.92794   0.00554   105   %  1.2604
     106     -73.00900     28.08017        -44.92883   0.00465   106   %  1.2693
     107     -73.25281     28.32302        -44.92979   0.00370   107   %  1.2783
     108     -73.49026     28.55951        -44.93075   0.00274   108   %  1.2873
     109     -73.72066     28.78892        -44.93173   0.00175   109   %  1.2964
     110     -73.94530     29.01257        -44.93273   0.00076   110   %  1.3056
     111     -74.16737     29.23362        -44.93375  -0.00026   111   %  1.3150
     112     -74.38282     29.44799        -44.93483  -0.00134   112   %  1.3245
     113     -74.59017     29.65425        -44.93592  -0.00243   113   %  1.3340
     114     -74.79248     29.85550        -44.93698  -0.00350   114   %  1.3436
     115     -74.98756     30.04945        -44.93811  -0.00462   115   %  1.3534
     116     -75.17774     30.23856        -44.93918  -0.00570   116   %  1.3633
     117     -75.35948     30.41914        -44.94035  -0.00686   117   %  1.3733
     118     -75.53650     30.59518        -44.94132  -0.00783   118   %  1.3833
     119     -75.70633     30.76393        -44.94239  -0.00891   119   %  1.3939
     120     -75.87424     30.93198        -44.94226  -0.00877   120   %  1.4036
     121     -76.01571     31.07548        -44.94023  -0.00674   121   %  1.4149
     122     -76.14900     31.22367        -44.92533   0.00816   122   %  1.4208
     123     -76.23246     31.32705        -44.90542   0.02807   123   %  1.4311
     124     -76.32247     31.45779        -44.86468   0.06880   124   %  1.4330
     125     -76.39131     31.55370        -44.83761   0.09588   125   %  1.4427
     126     -76.47428     31.68488        -44.78941   0.14408   126   %  1.4448
     127     -76.53838     31.77515        -44.76323   0.17026   127   %  1.4544
     128     -76.61557     31.90401        -44.71156   0.22193   128   %  1.4564
     129     -76.67546     31.99111        -44.68434   0.24914   129   %  1.4660
     130     -76.74494     32.11558        -44.62936   0.30413   130   %  1.4677
     131     -76.80042     32.19851        -44.60192   0.33157   131   %  1.4772
     132     -76.86353     32.31782        -44.54571   0.38778   132   %  1.4788
     133     -76.91565     32.39760        -44.51805   0.41544   133   %  1.4882
     134     -76.97287     32.51400        -44.45887   0.47462   134   %  1.4895
     135     -77.02149     32.59033        -44.43116   0.50233   135   %  1.4988
     136     -77.07352     32.70537        -44.36815   0.56534   136   %  1.5000
     137     -77.11975     32.77951        -44.34025   0.59324   137   %  1.5092
     138     -77.16634     32.89167        -44.27466   0.65882   138   %  1.5102
     139     -77.21061     32.96435        -44.24626   0.68723   139   %  1.5194
     140     -77.25195     33.07343        -44.17853   0.75496   140   %  1.5202
     141     -77.29376     33.14264        -44.15113   0.78236   141   %  1.5292
     142     -77.33136     33.24923        -44.08213   0.85136   142   %  1.5300
     143     -77.37166     33.31672        -44.05494   0.87855   143   %  1.5390
     144     -77.40486     33.41939        -43.98548   0.94801   144   %  1.5396
     145     -77.44345     33.48535        -43.95810   0.97539   145   %  1.5485
     146     -77.47253     33.58710        -43.88543   1.04806   146   %  1.5489
     147     -77.50987     33.65173        -43.85814   1.07535   147   %  1.5576
     148     -77.53539     33.75118        -43.78421   1.14928   148   %  1.5580
     149     -77.57181     33.81514        -43.75667   1.17681   149   %  1.5667
     150     -77.59365     33.91237        -43.68128   1.25221   150   %  1.5668
     151     -77.62897     33.97551        -43.65346   1.28002   151   %  1.5755
     152     -77.64764     34.07090        -43.57675   1.35674   152   %  1.5755
     153     -77.68206     34.13335        -43.54870   1.38478   153   %  1.5841
     154     -77.69740     34.22875        -43.46865   1.46483   154   %  1.5838
     155     -77.73136     34.29043        -43.44093   1.49256   155   %  1.5923
     156     -77.74403     34.38463        -43.35940   1.57409   156   %  1.5920
     157     -77.77749     34.44496        -43.33252   1.60096   157   %  1.6004
     158     -77.78735     34.53916        -43.24819   1.68530   158   %  1.6000
     159     -77.82088     34.59970        -43.22118   1.71231   159   %  1.6084
     160     -77.82817     34.69249        -43.13568   1.79781   160   %  1.6079
     161     -77.86129     34.75254        -43.10876   1.82473   161   %  1.6163
     162     -77.86662     34.84288        -43.02374   1.90975   162   %  1.6156
     163     -77.89891     34.90194        -42.99698   1.93651   163   %  1.6239
     164     -77.90221     34.99106        -42.91115   2.02234   164   %  1.6231
     165     -77.93409     35.05021        -42.88388   2.04961   165   %  1.6314
     166     -77.93461     35.14089        -42.79372   2.13977   166   %  1.6303
     167     -77.96685     35.20006        -42.76679   2.16669   167   %  1.6385
     168     -77.96602     35.28905        -42.67697   2.25652   168   %  1.6375
     169     -77.99789     35.34756        -42.65033   2.28316   169   %  1.6457
     170     -77.99524     35.43537        -42.55986   2.37362   170   %  1.6445
     171     -78.02685     35.49409        -42.53276   2.40073   171   %  1.6527
     172     -78.02207     35.58285        -42.43922   2.49427   172   %  1.6513
     173     -78.05385     35.64100        -42.41284   2.52064   173   %  1.6593
     174     -78.04749     35.73008        -42.31741   2.61608   174   %  1.6580
     175     -78.07960     35.78807        -42.29153   2.64196   175   %  1.6660
     176     -78.07205     35.87556        -42.19648   2.73700   176   %  1.6646
     177     -78.10389     35.93332        -42.17057   2.76291   177   %  1.6726
     178     -78.09453     36.02129        -42.07324   2.86025   178   %  1.6710
     179     -78.12671     36.08000        -42.04671   2.88677   179   %  1.6790
     180     -78.11576     36.16851        -41.94725   2.98624   180   %  1.6773
     181     -78.14812     36.22729        -41.92083   3.01266   181   %  1.6852
     182     -78.13554     36.31679        -41.81876   3.11473   182   %  1.6834
     183     -78.16829     36.37529        -41.79299   3.14049   183   %  1.6913
     184     -78.15501     36.46373        -41.69128   3.24221   184   %  1.6895
     185     -78.18748     36.52089        -41.66659   3.26690   185   %  1.6973
     186     -78.17319     36.60878        -41.56442   3.36907   186   %  1.6955
     187     -78.20595     36.66706        -41.53889   3.39460   187   %  1.7034
     188     -78.18953     36.75680        -41.43273   3.50076   188   %  1.7013
     189     -78.22283     36.81479        -41.40804   3.52545   189   %  1.7089
     190     -78.20526     36.90633        -41.29892   3.63456   190   %  1.7070
     191     -78.23938     36.96473        -41.27465   3.65884   191   %  1.7147
     192     -78.22022     37.05705        -41.16316   3.77033   192   %  1.7127
     193     -78.25489     37.11541        -41.13948   3.79401   193   %  1.7203
     194     -78.23355     37.21142        -41.02213   3.91136   194   %  1.7182
     195     -78.26983     37.27147        -40.99837   3.93512   195   %  1.7258
     196     -78.24785     37.36727        -40.88058   4.05291   196   %  1.7238
     197     -78.28416     37.42682        -40.85735   4.07614   197   %  1.7314
     198     -78.26074     37.52383        -40.73691   4.19658   198   %  1.7293
     199     -78.29762     37.58363        -40.71399   4.21950   199   %  1.7368
     200     -78.27412     37.67981        -40.59431   4.33917   200   %  1.7348
     201     -78.31079     37.73916        -40.57163   4.36186   201   %  1.7423
     202     -78.28670     37.83408        -40.45262   4.48087   202   %  1.7401
     203     -78.32316     37.89339        -40.42978   4.50371   203   %  1.7476
     204     -78.29654     37.99241        -40.30414   4.62935   204   %  1.7452
     205     -78.33455     38.05331        -40.28124   4.65225   205   %  1.7526
     206     -78.30834     38.15178        -40.15656   4.77693   206   %  1.7504
     207     -78.34593     38.21141        -40.13451   4.79898   207   %  1.7579
     208     -78.31838     38.31046        -40.00792   4.92557   208   %  1.7555
     209     -78.35650     38.37058        -39.98591   4.94757   209   %  1.7629
     210     -78.32657     38.47447        -39.85209   5.08139   210   %  1.7604
     211     -78.36645     38.53627        -39.83019   5.10330   211   %  1.7677
     212     -78.33530     38.64327        -39.69203   5.24146   212   %  1.7653
     213     -78.37605     38.70497        -39.67109   5.26240   213   %  1.7726
     214     -78.34387     38.81438        -39.52949   5.40400   214   %  1.7703
     215     -78.38552     38.87661        -39.50892   5.42457   215   %  1.7776
     216     -78.35077     38.99080        -39.35998   5.57351   216   %  1.7751
     217     -78.39430     39.05487        -39.33943   5.59406   217   %  1.7824
     218     -78.35864     39.17246        -39.18618   5.74731   218   %  1.7800
     219     -78.40281     39.23610        -39.16672   5.76677   219   %  1.7872
     220     -78.36569     39.35772        -39.00796   5.92553   220   %  1.7849
     221     -78.41126     39.42269        -38.98857   5.94491   221   %  1.7921
     222     -78.37217     39.54832        -38.82384   6.10965   222   %  1.7897
     223     -78.41898     39.61399        -38.80500   6.12849   223   %  1.7968
     224     -78.37805     39.74606        -38.63199   6.30150   224   %  1.7945
     225     -78.42658     39.81311        -38.61347   6.32002   225   %  1.8016
     226     -78.38523     39.94757        -38.43766   6.49582   226   %  1.7994
     227     -78.43402     40.01389        -38.42012   6.51336   227   %  1.8064
     228     -78.38987     40.15559        -38.23428   6.69921   228   %  1.8041
     229     -78.44106     40.22467        -38.21639   6.71710   229   %  1.8113
     230     -78.39432     40.37378        -38.02055   6.91294   230   %  1.8089
     231     -78.44726     40.44386        -38.00339   6.93009   231   %  1.8159
     232     -78.40025     40.59966        -37.80059   7.13289   232   %  1.8138
     233     -78.45405     40.66982        -37.78424   7.14925   233   %  1.8208
     234     -78.40659     40.82754        -37.57904   7.35444   234   %  1.8187
     235     -78.46072     40.89752        -37.56320   7.37029   235   %  1.8256
     236     -78.40954     41.06420        -37.34534   7.58815   236   %  1.8234
     237     -78.46636     41.13715        -37.32920   7.60428   237   %  1.8304
     238     -78.41675     41.30643        -37.11032   7.82317   238   %  1.8284
     239     -78.47308     41.37791        -37.09517   7.83832   239   %  1.8353
     240     -78.42128     41.55026        -36.87101   8.06247   240   %  1.8332
     241     -78.47880     41.62312        -36.85569   8.07780   241   %  1.8401
     242     -78.42399     41.80506        -36.61893   8.31455   242   %  1.8378
     243     -78.48349     41.87955        -36.60395   8.32954   243   %  1.8447
     244     -78.42943     42.06855        -36.36088   8.57261   244   %  1.8427
     245     -78.48968     42.14341        -36.34627   8.58722   245   %  1.8497
     246     -78.43450     42.33217        -36.10233   8.83116   246   %  1.8476
     247     -78.49473     42.40651        -36.08822   8.84527   247   %  1.8544
     248     -78.44059     42.59853        -35.84207   9.09142   248   %  1.8525
     249     -78.50093     42.67292        -35.82801   9.10548   249   %  1.8593
     250     -78.44578     42.86241        -35.58336   9.35012   250   %  1.8572
     251     -78.50634     42.93725        -35.56909   9.36440   251   %  1.8641
     252     -78.44724     43.13525        -35.31199   9.62149   252   %  1.8617
     253     -78.50975     43.21196        -35.29779   9.63570   253   %  1.8685
     254     -78.44993     43.42331        -35.02662   9.90687   254   %  1.8664
     255     -78.51363     43.50035        -35.01328   9.92020   255   %  1.8731
     256     -78.45102     43.72477        -34.72625  10.20724   256   %  1.8710
     257     -78.51730     43.80438        -34.71292  10.22057   257   %  1.8777
     258     -78.44988     44.04626        -34.40363  10.52986   258   %  1.8754
     259     -78.51958     44.12909        -34.39049  10.54299   259   %  1.8822
     260     -78.44896     44.39507        -34.05390  10.87959   260   %  1.8801
     261     -78.52181     44.48043        -34.04138  10.89211   261   %  1.8868
     262     -78.44823     44.76993        -33.67830  11.25519   262   %  1.8848
     263     -78.52321     44.85634        -33.66687  11.26662   263   %  1.8914
     264     -78.45176     45.16728        -33.28448  11.64901   264   %  1.8899
     265     -78.52748     45.25358        -33.27390  11.65958   265   %  1.8965
     266     -78.45603     45.56694        -32.88909  12.04439   266   %  1.8950
     267     -78.53183     45.65297        -32.87886  12.05463   267   %  1.9016
     268     -78.46109     45.96853        -32.49257  12.44092   268   %  1.9002
     269     -78.53703     46.05471        -32.48232  12.45117   269   %  1.9068
     270     -78.45895     46.38067        -32.07828  12.85521   270   %  1.9050
     271     -78.53811     46.47050        -32.06761  12.86588   271   %  1.9115
     272     -78.57113     46.47310        -32.09803  12.83545   272   %  1.9192
     273     -78.54211     46.50848        -32.03363  12.89986   273   %  1.9153
     274     -78.57427     46.56821        -32.00606  12.92743   274   %  1.9223
     275     -78.54386     46.64954        -31.89432  13.03917   275   %  1.9181
     276     -78.57672     46.70781        -31.86891  13.06458   276   %  1.9251
     277     -78.54563     46.79345        -31.75218  13.18131   277   %  1.9210
     278     -78.57917     46.85224        -31.72693  13.20656   278   %  1.9279
     279     -78.54647     46.94079        -31.60568  13.32781   279   %  1.9237
     280     -78.58141     47.00067        -31.58074  13.35275   280   %  1.9306
     281     -78.54738     47.09251        -31.45487  13.47861   281   %  1.9265
     282     -78.58338     47.15172        -31.43166  13.50183   282   %  1.9333
     283     -78.54854     47.24606        -31.30249  13.63100   283   %  1.9293
     284     -78.58586     47.30653        -31.27933  13.65416   284   %  1.9362
     285     -78.55182     47.39840        -31.15342  13.78007   285   %  1.9324
     286     -78.58834     47.45733        -31.13100  13.80249   286   %  1.9392
     287     -78.55320     47.55116        -31.00204  13.93144   287   %  1.9352
     288     -78.59056     47.61099        -30.97957  13.95392   288   %  1.9420
     289     -78.55572     47.70480        -30.85092  14.08257   289   %  1.9382
     290     -78.59300     47.76418        -30.82881  14.10467   290   %  1.9449
     291     -78.55644     47.86094        -30.69549  14.23799   291   %  1.9410
     292     -78.59497     47.92155        -30.67342  14.26007   292   %  1.9477
     293     -78.55784     48.02095        -30.53689  14.39660   293   %  1.9438
     294     -78.59729     48.08246        -30.51482  14.41866   294   %  1.9506
     295     -78.55896     48.18394        -30.37501  14.55847   295   %  1.9467
     296     -78.59911     48.24543        -30.35367  14.57981   296   %  1.9534
     297     -78.55976     48.35084        -30.20892  14.72457   297   %  1.9495
     298     -78.60114     48.41321        -30.18793  14.74556   298   %  1.9562
     299     -78.55951     48.52354        -30.03597  14.89752   299   %  1.9523
     300     -78.60281     48.58767        -30.01514  14.91835   300   %  1.9590
     301     -78.56025     48.70231        -29.85794  15.07554   301   %  1.9552
     302     -78.60456     48.76651        -29.83805  15.09544   302   %  1.9619
     303     -78.56094     48.88496        -29.67598  15.25750   303   %  1.9581
     304     -78.60647     48.95006        -29.65641  15.27707   304   %  1.9648
     305     -78.56087     49.07346        -29.48741  15.44608   305   %  1.9610
     306     -78.60802     49.13986        -29.46816  15.46533   306   %  1.9677
     307     -78.56051     49.27016        -29.29035  15.64314   307   %  1.9639
     308     -78.60951     49.33796        -29.27155  15.66194   308   %  1.9706
     309     -78.56304     49.46923        -29.09381  15.83967   309   %  1.9671
     310     -78.61150     49.53514        -29.07636  15.85713   310   %  1.9736
     311     -78.56310     49.67098        -28.89212  16.04137   311   %  1.9701
     312     -78.61334     49.73912        -28.87422  16.05927   312   %  1.9767
     313     -78.56513     49.87595        -28.68918  16.24430   313   %  1.9732
     314     -78.61540     49.94357        -28.67183  16.26165   314   %  1.9798
     315     -78.56636     50.08284        -28.48351  16.44997   315   %  1.9763
     316     -78.61707     50.15051        -28.46656  16.46693   316   %  1.9828
     317     -78.56817     50.29211        -28.27606  16.65742   317   %  1.9795
     318     -78.61943     50.36041        -28.25902  16.67446   318   %  1.9860
     319     -78.56704     50.50735        -28.05969  16.87380   319   %  1.9824
     320     -78.62025     50.57760        -28.04265  16.89084   320   %  1.9889
     321     -78.56770     50.73246        -27.83524  17.09825   321   %  1.9855
     322     -78.62161     50.80229        -27.81932  17.11417   322   %  1.9919
     323     -78.56511     50.96854        -27.59657  17.33692   323   %  1.9884
     324     -78.62189     51.04101        -27.58089  17.35260   324   %  1.9948
     325     -78.56506     51.21780        -27.34727  17.58622   325   %  1.9916
     326     -78.62376     51.29192        -27.33184  17.60165   326   %  1.9981
     327     -78.56858     51.46516        -27.10343  17.83006   327   %  1.9950
     328     -78.62625     51.53765        -27.08860  17.84489   328   %  2.0015
     329     -78.57051     51.71044        -26.86006  18.07342   329   %  1.9983
     330     -78.62859     51.78386        -26.84473  18.08876   330   %  2.0048
     331     -78.57352     51.95382        -26.61970  18.31379   331   %  2.0016
     332     -78.63069     52.02590        -26.60478  18.32870   332   %  2.0080
     333     -78.57507     52.19772        -26.37735  18.55614   333   %  2.0048
     334     -78.63286     52.27085        -26.36201  18.57148   334   %  2.0113
     335     -78.57766     52.44059        -26.13707  18.79641   335   %  2.0081
     336     -78.63483     52.51274        -26.12209  18.81139   336   %  2.0145
     337     -78.57946     52.68372        -25.89574  19.03775   337   %  2.0113
     338     -78.63697     52.75647        -25.88050  19.05299   338   %  2.0177
     339     -78.58091     52.92754        -25.65337  19.28012   339   %  2.0144
     340     -78.63868     53.00057        -25.63811  19.29538   340   %  2.0209
     341     -78.57948     53.17969        -25.39978  19.53370   341   %  2.0174
     342     -78.63907     53.25443        -25.38465  19.54884   342   %  2.0238
     343     -78.57608     53.45025        -25.12583  19.80766   343   %  2.0203
     344     -78.63900     53.52812        -25.11088  19.82261   344   %  2.0267
     345     -78.57746     53.73165        -24.84581  20.08767   345   %  2.0235
     346     -78.64012     53.80779        -24.83233  20.10116   346   %  2.0298
     347     -78.57469     54.02401        -24.55068  20.38281   347   %  2.0266
     348     -78.63991     54.10266        -24.53726  20.39623   348   %  2.0329
     349     -78.57251     54.33565        -24.23685  20.69663   349   %  2.0297
     350     -78.63996     54.41590        -24.22406  20.70943   350   %  2.0360
     351     -78.57409     54.65705        -23.91704  21.01645   351   %  2.0332
     352     -78.64217     54.73756        -23.90461  21.02888   352   %  2.0395
     353     -78.57285     54.98223        -23.59062  21.34286   353   %  2.0364
     354     -78.64236     55.06416        -23.57820  21.35529   354   %  2.0427
     355     -78.57539     55.31655        -23.25884  21.67465   355   %  2.0400
     356     -78.64456     55.39752        -23.24704  21.68644   356   %  2.0462
     357     -78.57408     55.65446        -22.91962  22.01387   357   %  2.0433
     358     -78.64491     55.73732        -22.90759  22.02589   358   %  2.0495
     359     -78.57623     56.00132        -22.57491  22.35858   359   %  2.0468
     360     -78.64683     56.08335        -22.56348  22.37000   360   %  2.0530
     361     -78.57792     56.34734        -22.23057  22.70291   361   %  2.0502
     362     -78.64902     56.43015        -22.21887  22.71462   362   %  2.0565
     363     -78.57857     56.69417        -21.88440  23.04909   363   %  2.0536
     364     -78.65028     56.77768        -21.87260  23.06089   364   %  2.0599
     365     -78.57769     57.05070        -21.52699  23.40650   365   %  2.0569
     366     -78.65110     57.13610        -21.51500  23.41849   366   %  2.0632
     367     -78.57865     57.41484        -21.16381  23.76967   367   %  2.0603
     368     -78.65244     57.50027        -21.15217  23.78132   368   %  2.0666
     369     -78.57837     57.78550        -20.79287  24.14062   369   %  2.0636
     370     -78.65271     57.87114        -20.78157  24.15192   370   %  2.0698
     371     -78.57102     58.18369        -20.38732  24.54616   371   %  2.0666
     372     -78.64948     58.27336        -20.37612  24.55737   372   %  2.0728
     373     -78.56147     58.63613        -19.92534  25.00814   373   %  2.0697
     374     -78.64594     58.73149        -19.91446  25.01903   374   %  2.0759
     375     -78.68199     58.73931        -19.94268  24.99081   375   %  2.0826
     376     -78.64828     58.77503        -19.87325  25.06024   376   %  2.0784
     377     -78.68363     58.83455        -19.84908  25.08441   377   %  2.0847
     378     -78.64831     58.92170        -19.72661  25.20688   378   %  2.0803
     379     -78.68454     58.98090        -19.70364  25.22985   379   %  2.0867
     380     -78.64677     59.07710        -19.56967  25.36382   380   %  2.0823
     381     -78.68516     59.13849        -19.54667  25.38682   381   %  2.0886
     382     -78.64698     59.23678        -19.41020  25.52328   382   %  2.0843
     383     -78.68587     59.29732        -19.38855  25.54494   383   %  2.0907
     384     -78.64590     59.39983        -19.24608  25.68741   384   %  2.0864
     385     -78.68670     59.46260        -19.22411  25.70938   385   %  2.0927
     386     -78.64561     59.56788        -19.07773  25.85576   386   %  2.0884
     387     -78.68717     59.63030        -19.05687  25.87662   387   %  2.0947
     388     -78.64439     59.74123        -18.90317  26.03032   388   %  2.0905
     389     -78.68792     59.80567        -18.88225  26.05123   389   %  2.0969
     390     -78.64321     59.92103        -18.72218  26.21131   390   %  2.0926
     391     -78.68823     59.98629        -18.70194  26.23155   391   %  2.0989
     392     -78.64270     60.10654        -18.53616  26.39733   392   %  2.0947
     393     -78.68889     60.17231        -18.51657  26.41691   393   %  2.1010
     394     -78.64037     60.29951        -18.34086  26.59262   394   %  2.0968
     395     -78.68865     60.36662        -18.32203  26.61145   395   %  2.1030
     396     -78.63938     60.50134        -18.13804  26.79545   396   %  2.0990
     397     -78.68924     60.56935        -18.11990  26.81359   397   %  2.1052
     398     -78.63960     60.70581        -17.93379  26.99970   398   %  2.1013
     399     -78.68986     60.77349        -17.91636  27.01712   399   %  2.1075
     400     -78.63770     60.91710        -17.72060  27.21288   400   %  2.1035
     401     -78.69011     60.98706        -17.70306  27.23043   401   %  2.1097
     402     -78.63576     61.13875        -17.49701  27.43647   402   %  2.1057
     403     -78.68996     61.20984        -17.48013  27.45336   403   %  2.1119
     404     -78.63387     61.37130        -17.26257  27.67092   404   %  2.1080
     405     -78.69008     61.44399        -17.24610  27.68739   405   %  2.1142
     406     -78.63351     61.61056        -17.02295  27.91054   406   %  2.1104
     407     -78.69039     61.68309        -17.00730  27.92619   407   %  2.1166
     408     -78.63090     61.85954        -16.77136  28.16213   408   %  2.1127
     409     -78.68963     61.93327        -16.75636  28.17713   409   %  2.1188
     410     -78.62708     62.12643        -16.50065  28.43284   410   %  2.1150
     411     -78.68917     62.20343        -16.48574  28.44775   411   %  2.1212
     412     -78.62222     62.41266        -16.20956  28.72393   412   %  2.1173
     413     -78.68703     62.49132        -16.19570  28.73778   413   %  2.1233
     414     -78.62270     62.71603        -15.90667  29.02682   414   %  2.1200
     415     -78.68864     62.79528        -15.89336  29.04013   415   %  2.1262
     416     -78.62098     63.01994        -15.60103  29.33245   416   %  2.1226
     417     -78.68828     63.10059        -15.58770  29.34579   417   %  2.1287
     418     -78.62167     63.33367        -15.28800  29.64549   418   %  2.1253
     419     -78.68931     63.41421        -15.27511  29.65838   419   %  2.1314
     420     -78.61622     63.66012        -14.95611  29.97738   420   %  2.1277
     421     -78.68681     63.74348        -14.94333  29.99016   421   %  2.1337
     422     -78.60734     64.02794        -14.57940  30.35408   422   %  2.1300
     423     -78.68279     64.11544        -14.56735  30.36613   423   %  2.1360
     424     -78.60066     64.44045        -14.16021  30.77328   424   %  2.1326
     425     -78.68055     64.53172        -14.14883  30.78466   425   %  2.1386
     426     -78.59818     64.87771        -13.72048  31.21301   426   %  2.1354
     427     -78.67959     64.96957        -13.71002  31.22346   427   %  2.1415
     428     -78.71297     64.97277        -13.74020  31.19328   428   %  2.1481
     429     -78.68041     65.00812        -13.67230  31.26119   429   %  2.1435
     430     -78.71405     65.06881        -13.64523  31.28825   430   %  2.1497
     431     -78.67987     65.15338        -13.52650  31.40699   431   %  2.1450
     432     -78.71446     65.21235        -13.50211  31.43138   432   %  2.1512
     433     -78.67975     65.30149        -13.37826  31.55523   433   %  2.1467
     434     -78.71513     65.36112        -13.35401  31.57948   434   %  2.1529
     435     -78.67918     65.45196        -13.22722  31.70627   435   %  2.1483
     436     -78.71548     65.51194        -13.20354  31.72995   436   %  2.1545
     437     -78.67842     65.60602        -13.07241  31.86108   437   %  2.1499
     438     -78.71593     65.66674        -13.04919  31.88430   438   %  2.1561
     439     -78.67729     65.76421        -12.91308  32.02041   439   %  2.1515
     440     -78.71624     65.82600        -12.89024  32.04325   440   %  2.1578
     441     -78.67824     65.92325        -12.75499  32.17850   441   %  2.1534
     442     -78.71705     65.98444        -12.73260  32.20088   442   %  2.1596
     443     -78.67851     66.08180        -12.59671  32.33678   443   %  2.1551
     444     -78.71743     66.14256        -12.57488  32.35861   444   %  2.1612
     445     -78.67654     66.24568        -12.43086  32.50263   445   %  2.1567
     446     -78.71768     66.30894        -12.40875  32.52474   446   %  2.1629
     447     -78.67465     66.41766        -12.25699  32.67649   447   %  2.1583
     448     -78.71760     66.48196        -12.23565  32.69784   448   %  2.1644
     449     -78.67387     66.59484        -12.07903  32.85446   449   %  2.1600
     450     -78.71792     66.65949        -12.05843  32.87506   450   %  2.1662
     451     -78.67451     66.77227        -11.90224  33.03125   451   %  2.1618
     452     -78.71837     66.83579        -11.88259  33.05090   452   %  2.1679
     453     -78.67125     66.95639        -11.71487  33.21862   453   %  2.1634
     454     -78.71787     67.02259        -11.69527  33.23821   454   %  2.1695
     455     -78.67135     67.14705        -11.52430  33.40918   455   %  2.1653
     456     -78.71857     67.21318        -11.50539  33.42810   456   %  2.1714
     457     -78.67032     67.33976        -11.33056  33.60293   457   %  2.1670
     458     -78.71858     67.40676        -11.31182  33.62167   458   %  2.1731
     459     -78.66894     67.53937        -11.12957  33.80392   459   %  2.1688
     460     -78.71851     67.60713        -11.11139  33.82210   460   %  2.1749
     461     -78.66923     67.74198        -10.92725  34.00624   461   %  2.1707
     462     -78.71883     67.80882        -10.91001  34.02348   462   %  2.1767
     463     -78.66433     67.95510        -10.70923  34.22426   463   %  2.1723
     464     -78.71761     68.02583        -10.69178  34.24171   464   %  2.1783
     465     -78.66247     68.18277        -10.47970  34.45378   465   %  2.1741
     466     -78.71714     68.25353        -10.46361  34.46987   466   %  2.1801
     467     -78.65824     68.42287        -10.23538  34.69811   467   %  2.1758
     468     -78.71590     68.49625        -10.21965  34.71384   468   %  2.1818
     469     -78.65454     68.68022         -9.97432  34.95917   469   %  2.1777
     470     -78.71500     68.75589         -9.95911  34.97438   470   %  2.1837
     471     -78.65505     68.94449         -9.71055  35.22294   471   %  2.1798
     472     -78.71586     69.01997         -9.69589  35.23760   472   %  2.1859
     473     -78.65285     69.21238         -9.44046  35.49302   473   %  2.1818
     474     -78.71518     69.28944         -9.42575  35.50774   474   %  2.1878
     475     -78.65374     69.48709         -9.16665  35.76683   475   %  2.1839
     476     -78.71598     69.56346         -9.15253  35.78096   476   %  2.1900
     477     -78.65350     69.76154         -8.89196  36.04153   477   %  2.1860
     478     -78.71591     69.83781         -8.87810  36.05539   478   %  2.1920
     479     -78.64661     70.05462         -8.59199  36.34150   479   %  2.1877
     480     -78.71299     70.13483         -8.57816  36.35533   480   %  2.1937
     481     -78.64034     70.38100         -8.25934  36.67415   481   %  2.1896
     482     -78.71074     70.46454         -8.24620  36.68729   482   %  2.1955
     483     -78.63404     70.73538         -7.89867  37.03482   483   %  2.1915
     484     -78.70751     70.82097         -7.88654  37.04695   484   %  2.1974
     485     -78.62592     71.12854         -7.49738  37.43611   485   %  2.1935
     486     -78.70371     71.21779         -7.48592  37.44757   486   %  2.1993
     487     -78.61915     71.56171         -7.05744  37.87605   487   %  2.1956
     488     -78.70100     71.65448         -7.04652  37.88697   488   %  2.2015
     489     -78.73444     71.65722         -7.07723  37.85626   489   %  2.2079
     490     -78.70217     71.69212         -7.01005  37.92344   490   %  2.2031
     491     -78.73513     71.75151         -6.98362  37.94987   491   %  2.2091
     492     -78.70147     71.83434         -6.86713  38.06636   492   %  2.2043
     493     -78.73546     71.89283         -6.84263  38.09086   493   %  2.2104
     494     -78.70052     71.98107         -6.71945  38.21403   494   %  2.2056
     495     -78.73565     72.04055         -6.69510  38.23838   495   %  2.2117
     496     -78.70077     72.12890         -6.57187  38.36162   496   %  2.2070
     497     -78.73609     72.18834         -6.54775  38.38574   497   %  2.2131
     498     -78.69957     72.27956         -6.42000  38.51348   498   %  2.2082
     499     -78.73614     72.34006         -6.39608  38.53741   499   %  2.2143
     500     -78.69922     72.43326         -6.26596  38.66752   500   %  2.2095
     501     -78.73629     72.49316         -6.24313  38.69036   501   %  2.2156
     502     -78.69720     72.59078         -6.10642  38.82707   502   %  2.2108
     503     -78.73607     72.65184         -6.08423  38.84925   503   %  2.2167
     504     -78.69393     72.75726         -5.93668  38.99681   504   %  2.2119
     505     -78.73554     72.82025         -5.91530  39.01819   505   %  2.2179
     506     -78.69076     72.93381         -5.75694  39.17655   506   %  2.2131
     507     -78.73489     72.99819         -5.73670  39.19679   507   %  2.2191
     508     -78.68954     73.11627         -5.57327  39.36022   508   %  2.2145
     509     -78.73496     73.18121         -5.55375  39.37973   509   %  2.2205
     510     -78.68822     73.30225         -5.38597  39.54752   510   %  2.2159
     511     -78.73480     73.36798         -5.36681  39.56667   511   %  2.2219
     512     -78.68429     73.49876         -5.18553  39.74796   512   %  2.2172
     513     -78.73360     73.56657         -5.16702  39.76646   513   %  2.2231
     514     -78.67948     73.71187         -4.96761  39.96587   514   %  2.2184
     515     -78.73220     73.78219         -4.95001  39.98348   515   %  2.2243
     516     -78.67432     73.94267         -4.73165  40.20184   516   %  2.2197
     517     -78.73051     74.01557         -4.71494  40.21855   517   %  2.2256
     518     -78.66876     74.19357         -4.47519  40.45829   518   %  2.2211
     519     -78.72850     74.26911         -4.45939  40.47410   519   %  2.2270
     520     -78.66274     74.46734         -4.19539  40.73810   520   %  2.2225
     521     -78.72615     74.54568         -4.18047  40.75301   521   %  2.2284
     522     -78.65611     74.76738         -3.88873  41.04476   522   %  2.2239
     523     -78.72337     74.84868         -3.87468  41.05881   523   %  2.2298
     524     -78.64930     75.09697         -3.55233  41.38116   524   %  2.2254
     525     -78.72025     75.18102         -3.53923  41.39425   525   %  2.2313
     526     -78.64001     75.46365         -3.17636  41.75713   526   %  2.2269
     527     -78.71606     75.55224         -3.16382  41.76967   527   %  2.2328
     528     -78.63893     75.85813         -2.78080  42.15269   528   %  2.2289
     529     -78.71526     75.94539         -2.76987  42.16362   529   %  2.2348
     530     -78.63248     76.27079         -2.36169  42.57180   530   %  2.2307
     531     -78.71220     76.36153         -2.35068  42.58281   531   %  2.2365
     532     -78.63165     76.70677         -1.92488  43.00861   532   %  2.2328
     533     -78.71219     76.79759         -1.91460  43.01889   533   %  2.2387
     534     -78.74456     76.79861         -1.94595  42.98754   534   %  2.2450
     535     -78.71357     76.83257         -1.88100  43.05249   535   %  2.2400
     536     -78.74525     76.89248         -1.85278  43.08071   536   %  2.2461
     537     -78.71294     76.97255         -1.74039  43.19310   537   %  2.2410
     538     -78.74531     77.03019         -1.71511  43.21837   538   %  2.2470
     539     -78.71165     77.11575         -1.59590  43.33759   539   %  2.2420
     540     -78.74535     77.17422         -1.57113  43.36236   540   %  2.2480
     541     -78.71083     77.26114         -1.44970  43.48379   541   %  2.2431
     542     -78.74538     77.31973         -1.42566  43.50783   542   %  2.2490
     543     -78.70996     77.40864         -1.30133  43.63216   543   %  2.2441
     544     -78.74544     77.46768         -1.27776  43.65573   544   %  2.2501
     545     -78.70873     77.55933         -1.14940  43.78409   545   %  2.2452
     546     -78.74539     77.61914         -1.12625  43.80723   546   %  2.2511
     547     -78.70875     77.71131         -0.99743  43.93605   547   %  2.2463
     548     -78.74571     77.77129         -0.97441  43.95908   548   %  2.2523
     549     -78.70665     77.86766         -0.83899  44.09450   549   %  2.2473
     550     -78.74543     77.92953         -0.81590  44.11759   550   %  2.2533
     551     -78.70469     78.03133         -0.67336  44.26013   551   %  2.2483
     552     -78.74517     78.09413         -0.65103  44.28245   552   %  2.2543
     553     -78.70446     78.19710         -0.50737  44.42612   553   %  2.2495
     554     -78.74518     78.25909         -0.48610  44.44739   554   %  2.2554
     555     -78.70409     78.36290         -0.34119  44.59229   555   %  2.2507
     556     -78.74524     78.42495         -0.32030  44.61319   556   %  2.2566
     557     -78.70168     78.53393         -0.16775  44.76573   557   %  2.2517
     558     -78.74487     78.59812         -0.14675  44.78674   558   %  2.2576
     559     -78.70091     78.71032          0.00941  44.94290   559   %  2.2528
     560     -78.74457     78.77371          0.02914  44.96263   560   %  2.2587
     561     -78.69903     78.89068          0.19165  45.12514   561   %  2.2539
     562     -78.74445     78.95596          0.21151  45.14500   562   %  2.2599
     563     -78.69721     79.07709          0.37989  45.31337   563   %  2.2550
     564     -78.74385     79.14286          0.39901  45.33250   564   %  2.2609
     565     -78.69537     79.27016          0.57479  45.50828   565   %  2.2562
     566     -78.74353     79.33704          0.59350  45.52699   566   %  2.2621
     567     -78.69294     79.47009          0.77715  45.71063   567   %  2.2573
     568     -78.74290     79.53844          0.79554  45.72903   568   %  2.2632
     569     -78.68994     79.67996          0.99002  45.92351   569   %  2.2584
     570     -78.74209     79.75013          1.00804  45.94153   570   %  2.2643
     571     -78.68647     79.90137          1.21490  46.14839   571   %  2.2594
     572     -78.74051     79.97224          1.23172  46.16521   572   %  2.2653
     573     -78.68196     80.13835          1.45639  46.38987   573   %  2.2605
     574     -78.73897     80.21147          1.47250  46.40599   574   %  2.2664
     575     -78.67939     80.38747          1.70809  46.64157   575   %  2.2618
     576     -78.73820     80.46170          1.72350  46.65699   576   %  2.2676
     577     -78.67413     80.65083          1.97669  46.91018   577   %  2.2629
     578     -78.73581     80.72736          1.99155  46.92504   578   %  2.2687
     579     -78.66650     80.94231          2.27581  47.20930   579   %  2.2639
     580     -78.73257     81.02256          2.28999  47.22348   580   %  2.2697
     581     -78.66497     81.25367          2.58870  47.52218   581   %  2.2654
     582     -78.73184     81.33331          2.60147  47.53496   582   %  2.2712
     583     -78.66362     81.56987          2.90625  47.83974   583   %  2.2669
     584     -78.73150     81.65038          2.91888  47.85237   584   %  2.2727
     585     -78.65658     81.90293          3.24635  48.17984   585   %  2.2681
     586     -78.72861     81.98801          3.25940  48.19289   586   %  2.2739


           POTENTIAL ENERGY HAS STOPPED DROPPING


 **********************
 *                    *
 * JOB ENDED NORMALLY *
 *                    *
 **********************



 TOTAL JOB TIME:             0.25 SECONDS

 == MOPAC DONE ==
