 *******************************************************************************
 ** Site#:  999         For non-commercial use only           Version 21.129  **
 *******************************************************************************
 ** Cite this program as: MOPAC2016, Version: 21.129 , James J. P. Stewart,   **
 ** Stewart Computational Chemistry, web-site: HTTP://OpenMOPAC.net.          **
 *******************************************************************************
 **                                                                           **
 **                                MOPAC2016                                  **
 **                                                                           **
 *******************************************************************************

                              PM7 CALCULATION RESULTS

 *******************************************************************************
 *  CALCULATION DONE:                                Sun Nov 20 12:22:50 2022  *
 *  PM7        - The PM7 Hamiltonian to be used
 *
 *
 *
 *                 CHARGE ON SYSTEM = 0
 *
 *
 *
 *  IRC=N      - INTRINSIC REACTION COORDINATE -1 DEFINED
 *  PRECISE    - TIGHTER CRITERIA TO BE USED
 *  THREADS=1  - MULTI-THREADING NOT USED
 *  T=         - A TIME OF 172800.0 SECONDS REQUESTED
 *  DUMP=N     - RESTART FILE WRITTEN EVERY 7200.0 SECONDS REQUESTED
 *  CYCLES=    - DO A MAXIMUM OF 5000 STEPS
 *  OLDENS     - INITIAL DENSITY MATRIX READ OFF DISK
 *******************************************************************************
   pm7 threads=1 charge=0 irc=-1 oldens precise cycles=5000
 title
 title
   ATOM   CHEMICAL          X               Y               Z
  NUMBER   SYMBOL      (ANGSTROMS)     (ANGSTROMS)     (ANGSTROMS)
 
     1       C          0.15869148  *  -0.15979417  *  -0.06711290  *
     2       O          0.09808892  *   0.05100748  *   1.17682449  *
     3       O          1.15821264  *  -0.90243771  *  -0.53229571  *
     4       H         -0.84308612  *   0.58119702  *   0.37322410  *
     5       H          1.14089947  *  -1.02332214  *  -1.50573828  *
 


          CARTESIAN COORDINATES 

    NO.       ATOM           X           Y           Z

     1         C          0.1587     -0.1598     -0.0671
     2         O          0.0981      0.0510      1.1768
     3         O          1.1582     -0.9024     -0.5323
     4         H         -0.8431      0.5812      0.3732
     5         H          1.1409     -1.0233     -1.5057

 General Reference for PM7:
 "Optimization of Parameters for Semiempirical Methods VI: More Modifications to the 
 NDDO Approximations and Re-optimization of Parameters", J. J. P. Stewart, J. Mol. Mod., 1:32, 19 (2013)
 https://link.springer.com/article/10.1007/s00894-012-1667-x

           Empirical Formula: C H2 O2  =     5 atoms



      MOLECULAR POINT GROUP   :   Cs  


      RHF CALCULATION, NO. OF DOUBLY OCCUPIED LEVELS = 9



          HEAT OF FORMATION =     -17.612412 KCALS/MOLE


          GRADIENT NORM =   0.00937

          MOLECULAR WEIGHT =   46.03


          ESTIMATED TIME TO COMPLETE CALCULATION =        0.00 SECONDS

    FOR POINT-GROUP Cs   THERE ARE   2 UNIQUE SYMMETRY FUNCTIONS.

 STEP:   1 TIME =     0.00 SECS, INTEGRAL =      0.00 TIME LEFT: 172800.00
 STEP:   2 TIME =     0.00 SECS, INTEGRAL =      0.00 TIME LEFT: 172800.00
 STEP:   3 TIME =     0.00 SECS, INTEGRAL =      0.00 TIME LEFT: 172800.00
 STEP:   4 TIME =     0.00 SECS, INTEGRAL =      0.01 TIME LEFT: 172799.99
 STEP:   5 TIME =     0.00 SECS, INTEGRAL =      0.01 TIME LEFT: 172799.99
 STEP:   6 TIME =     0.00 SECS, INTEGRAL =      0.01 TIME LEFT: 172799.99
 STEP:   7 TIME =     0.00 SECS, INTEGRAL =      0.02 TIME LEFT: 172799.98
 STEP:   8 TIME =     0.00 SECS, INTEGRAL =      0.02 TIME LEFT: 172799.98
 STEP:   9 TIME =     0.00 SECS, INTEGRAL =      0.02 TIME LEFT: 172799.98
 STEP:  10 TIME =     0.00 SECS, INTEGRAL =      0.02 TIME LEFT: 172799.98
 STEP:  11 TIME =     0.00 SECS, INTEGRAL =      0.02 TIME LEFT: 172799.98
 STEP:  12 TIME =     0.00 SECS, INTEGRAL =      0.02 TIME LEFT: 172799.98
 STEP:  13 TIME =     0.00 SECS, INTEGRAL =      0.03 TIME LEFT: 172799.97
 STEP:  14 TIME =     0.00 SECS, INTEGRAL =      0.03 TIME LEFT: 172799.97
 STEP:  15 TIME =     0.00 SECS, INTEGRAL =      0.03 TIME LEFT: 172799.97
  Stopping critera: r_ij>5*r_ij(0)
 
           INITIAL VELOCITY IN DRC (Angstroms/Femtosecond)
        -0.07082         0.03130        -0.00000
        -0.00140        -0.04261         0.00001
         0.00102         0.01256        -0.00000
         0.84166         0.08438        -0.00003
         0.00842         0.01974        -0.00001
 
  Deltat    =   0.24 fs
  Maxcyc    =      5000
  Jloop_lim =      5000
 
  Initial distance matrix
  Bond#     i     j    Ini_value(A)
      1     1     2          1.263
      2     1     3          1.329
      3     1     4          1.322
      4     1     5          1.944
      5     2     3          2.226
      6     2     4          1.346
      7     2     5          3.072
      8     3     4          2.651
      9     3     5          0.981
     10     4     5          3.169
 
 


     POINT   POTENTIAL  +  ENERGY LOST   =   TOTAL      ERROR    REF%   MOVEMENT
       1     -17.61241      0.00000        -17.61241   0.00000     1   %  0.0000
       2     -17.61284      0.00000        -17.61284  -0.00043     2   %  0.0017
       3     -17.61414      0.00000        -17.61414  -0.00173     3   %  0.0035
       4     -17.63622      0.00000        -17.63622  -0.02380     4   %  0.0129
       5     -17.68396      0.00000        -17.68396  -0.04775     5   %  0.0224
       6     -17.75815      0.13563        -17.62252   0.01370     6   %  0.0319
       7     -17.85633      0.24427        -17.61206   0.02416     7   %  0.0413
       8     -17.98168      0.37264        -17.60903   0.02718     8   %  0.0508
       9     -18.13151      0.52520        -17.60630   0.02991     9   %  0.0602
      10     -18.30885      0.70549        -17.60337   0.03285    10   %  0.0698
      11     -18.51045      0.91030        -17.60015   0.03607    11   %  0.0793
      12     -18.73892      1.14210        -17.59681   0.03940    12   %  0.0889
      13     -18.99170      1.39838        -17.59332   0.04289    13   %  0.0984
      14     -19.26947      1.67970        -17.58977   0.04644    14   %  0.1080
      15     -19.57252      1.98635        -17.58617   0.05005    15   %  0.1175
      16     -19.89536      2.31285        -17.58251   0.05371    16   %  0.1270
      17     -20.23838      2.65945        -17.57893   0.05729    17   %  0.1364
      18     -20.60965      3.03423        -17.57542   0.06080    18   %  0.1460
      19     -20.99616      3.42432        -17.57184   0.06438    19   %  0.1554
      20     -21.40612      3.83773        -17.56840   0.06782    20   %  0.1649
      21     -21.83788      4.27290        -17.56498   0.07123    21   %  0.1744
      22     -22.29084      4.72923        -17.56161   0.07461    22   %  0.1839
      23     -22.76594      5.20765        -17.55829   0.07792    23   %  0.1935
      24     -23.25552      5.70049        -17.55503   0.08119    24   %  0.2030
      25     -23.76083      6.20892        -17.55191   0.08431    25   %  0.2125
      26     -24.28067      6.73176        -17.54891   0.08731    26   %  0.2219
      27     -24.82398      7.27794        -17.54604   0.09018    27   %  0.2315
      28     -25.37893      7.83572        -17.54321   0.09301    28   %  0.2410
      29     -25.94761      8.40709        -17.54052   0.09569    29   %  0.2505
      30     -26.53165      8.99368        -17.53796   0.09825    30   %  0.2600
      31     -27.13166      9.59615        -17.53551   0.10071    31   %  0.2696
      32     -27.73447     10.20130        -17.53316   0.10305    32   %  0.2790
      33     -28.35180     10.82080        -17.53100   0.10522    33   %  0.2885
      34     -28.98191     11.45298        -17.52893   0.10729    34   %  0.2980
      35     -29.62621     12.09924        -17.52697   0.10925    35   %  0.3075
      36     -30.27411     12.74900        -17.52511   0.11110    36   %  0.3170
      37     -30.92861     13.40521        -17.52340   0.11281    37   %  0.3265
      38     -31.58891     14.06709        -17.52182   0.11440    38   %  0.3359
      39     -32.26639     14.74604        -17.52035   0.11586    39   %  0.3455
      40     -32.94493     15.42596        -17.51897   0.11725    40   %  0.3550
      41     -33.62913     16.11143        -17.51771   0.11851    41   %  0.3644
      42     -34.32334     16.80679        -17.51655   0.11966    42   %  0.3740
      43     -35.01585     17.50034        -17.51550   0.12071    43   %  0.3835
      44     -35.70895     18.19438        -17.51457   0.12165    44   %  0.3929
      45     -36.41574     18.90201        -17.51374   0.12248    45   %  0.4024
      46     -37.11938     19.60639        -17.51299   0.12323    46   %  0.4119
      47     -37.82826     20.31592        -17.51234   0.12387    47   %  0.4214
      48     -38.53610     21.02432        -17.51178   0.12443    48   %  0.4309
      49     -39.23924     21.72792        -17.51132   0.12489    49   %  0.4403
      50     -39.94651     22.43556        -17.51095   0.12527    50   %  0.4497
      51     -40.66123     23.15058        -17.51065   0.12556    51   %  0.4593
      52     -41.37862     23.86820        -17.51043   0.12579    52   %  0.4689
      53     -42.08861     24.57832        -17.51029   0.12593    53   %  0.4783
      54     -42.79628     25.28604        -17.51024   0.12597    54   %  0.4878
      55     -43.55299     26.04277        -17.51022   0.12599    55   %  0.4979
      56     -44.61753     27.10751        -17.51002   0.12619    56   %  0.5122
      57     -45.31463     27.80425        -17.51037   0.12584    57   %  0.5216
      58     -46.00880     28.49819        -17.51060   0.12561    58   %  0.5310
      59     -46.70503     29.19413        -17.51090   0.12532    59   %  0.5405
      60     -47.40472     29.89347        -17.51125   0.12497    60   %  0.5500
      61     -48.09791     30.58625        -17.51166   0.12455    61   %  0.5595
      62     -48.78260     31.27050        -17.51210   0.12412    62   %  0.5689
      63     -49.46552     31.95293        -17.51259   0.12362    63   %  0.5784
      64     -50.14782     32.63469        -17.51314   0.12308    64   %  0.5879
      65     -50.82126     33.30752        -17.51374   0.12248    65   %  0.5974
      66     -51.49238     33.97800        -17.51438   0.12184    66   %  0.6069
      67     -52.15393     34.63887        -17.51507   0.12115    67   %  0.6163
      68     -52.80723     35.29144        -17.51579   0.12043    68   %  0.6257
      69     -53.46269     35.94615        -17.51654   0.11968    69   %  0.6352
      70     -54.10698     36.58964        -17.51734   0.11887    70   %  0.6446
      71     -54.75484     37.23667        -17.51817   0.11805    71   %  0.6541
      72     -55.39770     37.87864        -17.51905   0.11716    72   %  0.6637
      73     -56.02623     38.50625        -17.51998   0.11624    73   %  0.6731
      74     -56.65154     39.13063        -17.52091   0.11531    74   %  0.6826
      75     -57.27064     39.74876        -17.52188   0.11434    75   %  0.6920
      76     -57.88337     40.36049        -17.52288   0.11334    76   %  0.7015
      77     -58.49235     40.96844        -17.52390   0.11231    77   %  0.7110
      78     -59.08912     41.56415        -17.52497   0.11125    78   %  0.7205
      79     -59.67505     42.14902        -17.52604   0.11018    79   %  0.7298
      80     -60.25950     42.73239        -17.52711   0.10910    80   %  0.7393
      81     -60.84014     43.31191        -17.52823   0.10799    81   %  0.7488
      82     -61.40612     43.87674        -17.52938   0.10683    82   %  0.7582
      83     -61.97098     44.44045        -17.53053   0.10569    83   %  0.7677
      84     -62.52519     44.99348        -17.53171   0.10450    84   %  0.7771
      85     -63.06973     45.53682        -17.53291   0.10331    85   %  0.7865
      86     -63.61357     46.07946        -17.53410   0.10211    86   %  0.7960
      87     -64.14425     46.60890        -17.53535   0.10087    87   %  0.8054
      88     -64.67286     47.13627        -17.53659   0.09963    88   %  0.8149
      89     -65.19005     47.65219        -17.53786   0.09835    89   %  0.8244
      90     -65.69802     48.15888        -17.53914   0.09708    90   %  0.8338
      91     -66.19673     48.65631        -17.54042   0.09580    91   %  0.8432
      92     -66.68498     49.14327        -17.54171   0.09451    92   %  0.8525
      93     -67.17127     49.62828        -17.54299   0.09322    93   %  0.8620
      94     -67.64599     50.10167        -17.54432   0.09190    94   %  0.8714
      95     -68.11118     50.56555        -17.54564   0.09058    95   %  0.8807
      96     -68.56765     51.02069        -17.54696   0.08926    96   %  0.8900
      97     -69.02403     51.47575        -17.54828   0.08794    97   %  0.8995
      98     -69.47004     51.92038        -17.54966   0.08656    98   %  0.9090
      99     -69.90558     52.35454        -17.55104   0.08518    99   %  0.9184
     100     -70.33053     52.77812        -17.55241   0.08380   100   %  0.9277
     101     -70.74572     53.19194        -17.55378   0.08244   101   %  0.9370
     102     -71.16018     53.60504        -17.55514   0.08108   102   %  0.9465
     103     -71.56571     54.00915        -17.55656   0.07966   103   %  0.9559
     104     -71.96224     54.40426        -17.55798   0.07823   104   %  0.9654
     105     -72.34858     54.78917        -17.55941   0.07681   105   %  0.9748
     106     -72.72426     55.16343        -17.56083   0.07538   106   %  0.9841
     107     -73.09003     55.52779        -17.56224   0.07397   107   %  0.9934
     108     -73.44712     55.88347        -17.56365   0.07257   108   %  1.0027
     109     -73.79615     56.23110        -17.56505   0.07116   109   %  1.0120
     110     -74.13665     56.57018        -17.56647   0.06975   110   %  1.0212
     111     -74.47412     56.90623        -17.56788   0.06833   111   %  1.0307
     112     -74.80092     57.23157        -17.56935   0.06687   112   %  1.0400
     113     -75.11805     57.54725        -17.57081   0.06541   113   %  1.0493
     114     -75.42627     57.85401        -17.57226   0.06396   114   %  1.0586
     115     -75.72599     58.15228        -17.57371   0.06251   115   %  1.0679
     116     -76.01691     58.44174        -17.57517   0.06105   116   %  1.0772
     117     -76.29840     58.72178        -17.57662   0.05959   117   %  1.0865
     118     -76.57551     58.99743        -17.57808   0.05814   118   %  1.0958
     119     -76.84258     59.26300        -17.57958   0.05664   119   %  1.1051
     120     -77.10068     59.51961        -17.58107   0.05515   120   %  1.1144
     121     -77.35003     59.76746        -17.58256   0.05365   121   %  1.1237
     122     -77.59029     60.00623        -17.58406   0.05215   122   %  1.1330
     123     -77.82100     60.23544        -17.58556   0.05066   123   %  1.1422
     124     -78.04201     60.45496        -17.58705   0.04917   124   %  1.1514
     125     -78.25783     60.66930        -17.58853   0.04769   125   %  1.1607
     126     -78.46415     60.87409        -17.59006   0.04616   126   %  1.1699
     127     -78.66154     61.06995        -17.59159   0.04463   127   %  1.1791
     128     -78.84970     61.25658        -17.59312   0.04310   128   %  1.1883
     129     -79.02826     61.43362        -17.59465   0.04157   129   %  1.1975
     130     -79.20045     61.60428        -17.59617   0.04005   130   %  1.2067
     131     -79.36262     61.76489        -17.59773   0.03848   131   %  1.2158
     132     -79.51555     61.91626        -17.59929   0.03693   132   %  1.2249
     133     -79.66217     62.06132        -17.60084   0.03537   133   %  1.2342
     134     -79.79887     62.19642        -17.60245   0.03377   134   %  1.2433
     135     -79.92573     62.32168        -17.60405   0.03217   135   %  1.2523
     136     -80.04510     62.43946        -17.60564   0.03058   136   %  1.2614
     137     -80.15648     62.54921        -17.60727   0.02895   137   %  1.2706
     138     -80.25772     62.64878        -17.60894   0.02728   138   %  1.2796
     139     -80.35108     62.74049        -17.61060   0.02562   139   %  1.2887
     140     -80.43589     62.82358        -17.61231   0.02391   140   %  1.2978
     141     -80.51159     62.89753        -17.61406   0.02216   141   %  1.3068
     142     -80.57918     62.96334        -17.61585   0.02037   142   %  1.3159
     143     -80.63684     63.01913        -17.61771   0.01851   143   %  1.3248
     144     -80.68585     63.06626        -17.61959   0.01663   144   %  1.3336
     145     -80.72634     63.10478        -17.62156   0.01466   145   %  1.3425
     146     -80.75832     63.13462        -17.62370   0.01252   146   %  1.3514
     147     -80.78137     63.15524        -17.62613   0.01009   147   %  1.3603
     148     -80.79535     63.16627        -17.62907   0.00714   148   %  1.3690
     149     -80.78453     63.18285        -17.60168   0.03453   149   %  1.3602
     150     -80.79664     63.19696        -17.59968   0.03654   150   %  1.3699
     151     -80.78610     63.20609        -17.58001   0.05621   151   %  1.3776
     152     -80.79855     63.24814        -17.55041   0.08581   152   %  1.3753
     153     -80.78687     63.29832        -17.48855   0.14766   153   %  1.3789
     154     -80.79861     63.35107        -17.44753   0.18868   154   %  1.3767
     155     -80.78636     63.40976        -17.37660   0.25962   155   %  1.3796
     156     -80.79869     63.46424        -17.33445   0.30176   156   %  1.3775
     157     -80.78549     63.52538        -17.26011   0.37611   157   %  1.3798
     158     -80.79883     63.58172        -17.21711   0.41910   158   %  1.3781
     159     -80.78559     63.64245        -17.14314   0.49307   159   %  1.3797
     160     -80.79873     63.69888        -17.09985   0.53637   160   %  1.3784
     161     -80.78614     63.75876        -17.02738   0.60884   161   %  1.3795
     162     -80.79858     63.81476        -16.98382   0.65240   162   %  1.3786
     163     -80.78670     63.87397        -16.91272   0.72349   163   %  1.3793
     164     -80.79865     63.92813        -16.87052   0.76570   164   %  1.3786
     165     -80.78569     63.98893        -16.79676   0.83945   165   %  1.3791
     166     -80.79900     64.04326        -16.75574   0.88048   166   %  1.3787
     167     -80.78475     64.10460        -16.68015   0.95606   167   %  1.3790
     168     -80.79918     64.15939        -16.63979   0.99643   168   %  1.3787
     169     -80.78490     64.21938        -16.56552   1.07070   169   %  1.3789
     170     -80.79916     64.27337        -16.52580   1.11042   170   %  1.3787
     171     -80.78418     64.33475        -16.44943   1.18679   171   %  1.3788
     172     -80.79933     64.38940        -16.40993   1.22629   172   %  1.3786
     173     -80.78410     64.45026        -16.33384   1.30237   173   %  1.3787
     174     -80.79933     64.50464        -16.29469   1.34153   174   %  1.3786
     175     -80.78353     64.56661        -16.21692   1.41930   175   %  1.3786
     176     -80.79950     64.62100        -16.17850   1.45772   176   %  1.3785
     177     -80.78348     64.68203        -16.10144   1.53477   177   %  1.3786
     178     -80.79944     64.73648        -16.06296   1.57325   178   %  1.3785
     179     -80.78368     64.79726        -15.98642   1.64980   179   %  1.3785
     180     -80.79947     64.85117        -15.94829   1.68792   180   %  1.3784
     181     -80.78271     64.91388        -15.86883   1.76739   181   %  1.3784
     182     -80.79961     64.96889        -15.83072   1.80550   182   %  1.3784
     183     -80.78266     65.03111        -15.75155   1.88466   183   %  1.3784
     184     -80.79962     65.08563        -15.71399   1.92223   184   %  1.3783
     185     -80.78214     65.14863        -15.63351   2.00270   185   %  1.3783
     186     -80.79974     65.20313        -15.59661   2.03960   186   %  1.3783
     187     -80.78184     65.26590        -15.51594   2.12027   187   %  1.3782
     188     -80.79983     65.31958        -15.48025   2.15597   188   %  1.3782
     189     -80.78063     65.38391        -15.39672   2.23949   189   %  1.3782
     190     -80.79990     65.43925        -15.36065   2.27557   190   %  1.3781
     191     -80.78000     65.50473        -15.27527   2.36094   191   %  1.3781
     192     -80.79994     65.56062        -15.23932   2.39690   192   %  1.3781
     193     -80.77903     65.62787        -15.15116   2.48506   193   %  1.3781
     194     -80.80003     65.68413        -15.11591   2.52031   194   %  1.3780
     195     -80.77902     65.75037        -15.02864   2.60757   195   %  1.3780
     196     -80.80007     65.80505        -14.99502   2.64120   196   %  1.3779
     197     -80.77710     65.87414        -14.90297   2.73325   197   %  1.3779
     198     -80.80012     65.93061        -14.86952   2.76670   198   %  1.3779
     199     -80.77633     66.00042        -14.77592   2.86030   199   %  1.3779
     200     -80.80013     66.05615        -14.74398   2.89223   200   %  1.3778
     201     -80.77519     66.12700        -14.64819   2.98803   201   %  1.3778
     202     -80.80012     66.18397        -14.61614   3.02007   202   %  1.3777
     203     -80.77532     66.25421        -14.52110   3.11511   203   %  1.3777
     204     -80.80011     66.31041        -14.48970   3.14652   204   %  1.3776
     205     -80.77511     66.38068        -14.39443   3.24179   205   %  1.3776
     206     -80.80009     66.43625        -14.36383   3.27238   206   %  1.3775
     207     -80.77414     66.50787        -14.26626   3.36995   207   %  1.3775
     208     -80.80005     66.56417        -14.23588   3.40033   208   %  1.3775
     209     -80.77325     66.63717        -14.13607   3.50014   209   %  1.3775
     210     -80.80004     66.69481        -14.10523   3.53099   210   %  1.3774
     211     -80.77331     66.76777        -14.00554   3.63068   211   %  1.3774
     212     -80.80001     66.82471        -13.97531   3.66091   212   %  1.3773
     213     -80.77178     66.90047        -13.87131   3.76491   213   %  1.3773
     214     -80.79994     66.95905        -13.84089   3.79532   214   %  1.3772
     215     -80.77192     67.03425        -13.73768   3.89854   215   %  1.3772
     216     -80.79993     67.09191        -13.70801   3.92820   216   %  1.3771
     217     -80.77086     67.16883        -13.60203   4.03418   217   %  1.3771
     218     -80.79984     67.22737        -13.57246   4.06375   218   %  1.3770
     219     -80.76878     67.30827        -13.46051   4.17571   219   %  1.3770
     220     -80.79951     67.36709        -13.43242   4.20380   220   %  1.3769
     221     -80.76691     67.45081        -13.31610   4.32012   221   %  1.3769
     222     -80.79924     67.51000        -13.28924   4.34698   222   %  1.3768
     223     -80.76545     67.59552        -13.16994   4.46628   223   %  1.3768
     224     -80.79908     67.65574        -13.14333   4.49288   224   %  1.3767
     225     -80.76350     67.74475        -13.01875   4.61746   225   %  1.3767
     226     -80.79873     67.80619        -12.99254   4.64368   226   %  1.3766
     227     -80.76188     67.89845        -12.86343   4.77278   227   %  1.3766
     228     -80.79842     67.96053        -12.83789   4.79833   228   %  1.3765
     229     -80.76073     68.05472        -12.70601   4.93021   229   %  1.3765
     230     -80.79815     68.11703        -12.68113   4.95509   230   %  1.3764
     231     -80.75914     68.21411        -12.54503   5.09119   231   %  1.3764
     232     -80.79782     68.27734        -12.52048   5.11573   232   %  1.3763
     233     -80.75854     68.37562        -12.38291   5.25330   233   %  1.3763
     234     -80.79752     68.43811        -12.35941   5.27680   234   %  1.3762
     235     -80.75656     68.54013        -12.21644   5.41978   235   %  1.3762
     236     -80.79686     68.60300        -12.19386   5.44236   236   %  1.3761
     237     -80.75191     68.71477        -12.03714   5.59907   237   %  1.3761
     238     -80.79573     68.78091        -12.01482   5.62139   238   %  1.3759


           POTENTIAL ENERGY HAS STOPPED DROPPING


 **********************
 *                    *
 * JOB ENDED NORMALLY *
 *                    *
 **********************



 TOTAL JOB TIME:             0.12 SECONDS

 == MOPAC DONE ==
