 *******************************************************************************
 ** Site#:  999         For non-commercial use only           Version 21.129  **
 *******************************************************************************
 ** Cite this program as: MOPAC2016, Version: 21.129 , James J. P. Stewart,   **
 ** Stewart Computational Chemistry, web-site: HTTP://OpenMOPAC.net.          **
 *******************************************************************************
 **                                                                           **
 **                                MOPAC2016                                  **
 **                                                                           **
 *******************************************************************************

                              PM7 CALCULATION RESULTS

 *******************************************************************************
 *  CALCULATION DONE:                                Sun Nov 20 12:22:50 2022  *
 *  PM7        - The PM7 Hamiltonian to be used
 *
 *
 *
 *                 CHARGE ON SYSTEM = 0
 *
 *
 *
 *  IRC=N      - INTRINSIC REACTION COORDINATE  1 DEFINED
 *  PRECISE    - TIGHTER CRITERIA TO BE USED
 *  THREADS=1  - MULTI-THREADING NOT USED
 *  T=         - A TIME OF 172800.0 SECONDS REQUESTED
 *  DUMP=N     - RESTART FILE WRITTEN EVERY 7200.0 SECONDS REQUESTED
 *  CYCLES=    - DO A MAXIMUM OF 5000 STEPS
 *  OLDENS     - INITIAL DENSITY MATRIX READ OFF DISK
 *******************************************************************************
   pm7 threads=1 charge=0 irc= 1 oldens precise cycles=5000
 title
 title
   ATOM   CHEMICAL          X               Y               Z
  NUMBER   SYMBOL      (ANGSTROMS)     (ANGSTROMS)     (ANGSTROMS)
 
     1       C         -1.24967249  *   1.05340432  *   0.80266202  *
     2       O         -0.23757343  *   0.40185427  *   1.20451944  *
     3       O         -1.98989477  *   0.66817687  *  -0.19503651  *
     4       H         -0.57562818  *   1.54818500  *   1.82838732  *
     5       H         -1.73350010  *  -0.17720545  *  -0.64929985  *
 


          CARTESIAN COORDINATES 

    NO.       ATOM           X           Y           Z

     1         C         -1.2497      1.0534      0.8027
     2         O         -0.2376      0.4019      1.2045
     3         O         -1.9899      0.6682     -0.1950
     4         H         -0.5756      1.5482      1.8284
     5         H         -1.7335     -0.1772     -0.6493

 General Reference for PM7:
 "Optimization of Parameters for Semiempirical Methods VI: More Modifications to the 
 NDDO Approximations and Re-optimization of Parameters", J. J. P. Stewart, J. Mol. Mod., 1:32, 19 (2013)
 https://link.springer.com/article/10.1007/s00894-012-1667-x

           Empirical Formula: C H2 O2  =     5 atoms



      MOLECULAR POINT GROUP   :   Cs  


      RHF CALCULATION, NO. OF DOUBLY OCCUPIED LEVELS = 9



          HEAT OF FORMATION =     -24.727205 KCALS/MOLE


          GRADIENT NORM =   0.04739

          MOLECULAR WEIGHT =   46.03


          ESTIMATED TIME TO COMPLETE CALCULATION =        0.00 SECONDS

    FOR POINT-GROUP Cs   THERE ARE   2 UNIQUE SYMMETRY FUNCTIONS.

 STEP:   1 TIME =     0.00 SECS, INTEGRAL =      0.00 TIME LEFT: 172800.00
 STEP:   2 TIME =     0.00 SECS, INTEGRAL =      0.00 TIME LEFT: 172800.00
 STEP:   3 TIME =     0.00 SECS, INTEGRAL =      0.01 TIME LEFT: 172799.99
 STEP:   4 TIME =     0.00 SECS, INTEGRAL =      0.01 TIME LEFT: 172799.99
 STEP:   5 TIME =     0.00 SECS, INTEGRAL =      0.01 TIME LEFT: 172799.99
 STEP:   6 TIME =     0.00 SECS, INTEGRAL =      0.01 TIME LEFT: 172799.99
 STEP:   7 TIME =     0.00 SECS, INTEGRAL =      0.02 TIME LEFT: 172799.98
 STEP:   8 TIME =     0.00 SECS, INTEGRAL =      0.02 TIME LEFT: 172799.98
 STEP:   9 TIME =     0.00 SECS, INTEGRAL =      0.02 TIME LEFT: 172799.98
 STEP:  10 TIME =     0.00 SECS, INTEGRAL =      0.02 TIME LEFT: 172799.98
 STEP:  11 TIME =     0.00 SECS, INTEGRAL =      0.02 TIME LEFT: 172799.98
 STEP:  12 TIME =     0.00 SECS, INTEGRAL =      0.03 TIME LEFT: 172799.97
 STEP:  13 TIME =     0.00 SECS, INTEGRAL =      0.03 TIME LEFT: 172799.97
 STEP:  14 TIME =     0.00 SECS, INTEGRAL =      0.03 TIME LEFT: 172799.97
 STEP:  15 TIME =     0.00 SECS, INTEGRAL =      0.03 TIME LEFT: 172799.97
  Stopping critera: r_ij>5*r_ij(0)
 
           INITIAL VELOCITY IN DRC (Angstroms/Femtosecond)
        -0.07082         0.03019        -0.00001
        -0.00168        -0.04085         0.00001
         0.00799         0.01133        -0.00000
         0.79983         0.07611        -0.00002
        -0.05598         0.03268         0.00002
 
  Deltat    =   0.24 fs
  Maxcyc    =      5000
  Jloop_lim =      5000
 
  Initial distance matrix
  Bond#     i     j    Ini_value(A)
      1     1     2          1.269
      2     1     3          1.301
      3     1     4          1.323
      4     1     5          1.964
      5     2     3          2.258
      6     2     4          1.348
      7     2     5          2.451
      8     3     4          2.621
      9     3     5          0.993
     10     4     5          3.234
 
 


     POINT   POTENTIAL  +  ENERGY LOST   =   TOTAL      ERROR    REF%   MOVEMENT
       1     -24.72720      0.00000        -24.72720   0.00000     1   %  0.0000
       2     -24.72764      0.00000        -24.72764  -0.00043     2   %  0.0018
       3     -24.72889      0.00000        -24.72889  -0.00169     3   %  0.0036
       4     -24.75026      0.00000        -24.75026  -0.02305     4   %  0.0136
       5     -24.79595      0.00000        -24.79595  -0.04569     5   %  0.0235
       6     -24.86525      0.12804        -24.73721   0.01304     6   %  0.0334
       7     -24.95699      0.22948        -24.72750   0.02275     7   %  0.0432
       8     -25.07460      0.34997        -24.72462   0.02563     8   %  0.0532
       9     -25.21468      0.49265        -24.72203   0.02822     9   %  0.0632
      10     -25.37640      0.65715        -24.71925   0.03101    10   %  0.0731
      11     -25.56287      0.84648        -24.71639   0.03386    11   %  0.0831
      12     -25.77247      1.05908        -24.71338   0.03687    12   %  0.0932
      13     -25.99992      1.28964        -24.71028   0.03997    13   %  0.1031
      14     -26.25201      1.54475        -24.70727   0.04299    14   %  0.1132
      15     -26.52507      1.82090        -24.70417   0.04608    15   %  0.1233
      16     -26.81843      2.11734        -24.70109   0.04917    16   %  0.1333
      17     -27.12968      2.43164        -24.69804   0.05222    17   %  0.1434
      18     -27.45760      2.76253        -24.69507   0.05519    18   %  0.1534
      19     -27.80381      3.11162        -24.69219   0.05807    19   %  0.1633
      20     -28.16464      3.47527        -24.68938   0.06088    20   %  0.1733
      21     -28.54181      3.85514        -24.68667   0.06358    21   %  0.1832
      22     -28.94121      4.25716        -24.68405   0.06621    22   %  0.1933
      23     -29.35143      4.66999        -24.68144   0.06882    23   %  0.2033
      24     -29.77945      5.10049        -24.67896   0.07129    24   %  0.2133
      25     -30.21767      5.54112        -24.67655   0.07370    25   %  0.2233
      26     -30.67024      5.99596        -24.67428   0.07598    26   %  0.2333
      27     -31.12983      6.45773        -24.67210   0.07816    27   %  0.2432
      28     -31.60459      6.93454        -24.67006   0.08020    28   %  0.2532
      29     -32.09007      7.42198        -24.66810   0.08216    29   %  0.2632
      30     -32.58457      7.91833        -24.66624   0.08401    30   %  0.2731
      31     -33.09029      8.42579        -24.66450   0.08576    31   %  0.2831
      32     -33.60129      8.93844        -24.66285   0.08740    32   %  0.2931
      33     -34.12089      9.45956        -24.66133   0.08892    33   %  0.3030
      34     -34.64724      9.98732        -24.65992   0.09034    34   %  0.3129
      35     -35.18742     10.52882        -24.65860   0.09165    35   %  0.3230
      36     -35.72819     11.07081        -24.65737   0.09288    36   %  0.3330
      37     -36.27467     11.61841        -24.65626   0.09399    37   %  0.3430
      38     -36.83242     12.17717        -24.65525   0.09500    38   %  0.3531
      39     -37.39311     12.73879        -24.65433   0.09593    39   %  0.3631
      40     -37.95784     13.30434        -24.65350   0.09675    40   %  0.3732
      41     -38.52510     13.87232        -24.65278   0.09747    41   %  0.3833
      42     -39.09674     14.44459        -24.65216   0.09810    42   %  0.3934
      43     -39.66775     15.01613        -24.65163   0.09863    43   %  0.4034
      44     -40.23890     15.58770        -24.65120   0.09906    44   %  0.4135
      45     -40.81034     16.15948        -24.65086   0.09940    45   %  0.4235
      46     -41.38180     16.73120        -24.65061   0.09965    46   %  0.4335
      47     -41.95911     17.30868        -24.65044   0.09982    47   %  0.4436
      48     -42.52895     17.87860        -24.65035   0.09990    48   %  0.4536
      49     -43.10307     18.45273        -24.65034   0.09991    49   %  0.4637
      50     -43.91110     19.26089        -24.65021   0.10005    50   %  0.4780
      51     -44.48189     19.83137        -24.65053   0.09973    51   %  0.4881
      52     -45.05204     20.40127        -24.65076   0.09949    52   %  0.4982
      53     -45.61734     20.96626        -24.65108   0.09917    53   %  0.5083
      54     -46.17167     21.52051        -24.65117   0.09909    54   %  0.5183
      55     -46.72957     22.07817        -24.65140   0.09886    55   %  0.5284
      56     -47.28382     22.63210        -24.65172   0.09854    56   %  0.5385
      57     -47.83386     23.18176        -24.65210   0.09815    57   %  0.5486
      58     -48.37388     23.72133        -24.65255   0.09771    58   %  0.5585
      59     -48.91662     24.26359        -24.65303   0.09722    59   %  0.5687
      60     -49.44944     24.79586        -24.65359   0.09667    60   %  0.5787
      61     -49.97857     25.32439        -24.65418   0.09608    61   %  0.5887
      62     -50.50631     25.85149        -24.65482   0.09544    62   %  0.5989
      63     -51.02264     26.36712        -24.65552   0.09474    63   %  0.6089
      64     -51.53537     26.87913        -24.65624   0.09401    64   %  0.6189
      65     -52.04482     27.38781        -24.65701   0.09324    65   %  0.6290
      66     -52.54609     27.88826        -24.65783   0.09243    66   %  0.6391
      67     -53.04374     28.38507        -24.65867   0.09158    67   %  0.6492
      68     -53.53873     28.87918        -24.65956   0.09070    68   %  0.6594
      69     -54.01937     29.35889        -24.66049   0.08977    69   %  0.6694
      70     -54.50122     29.83980        -24.66142   0.08884    70   %  0.6796
      71     -54.97477     30.31236        -24.66240   0.08785    71   %  0.6898
      72     -55.43552     30.77210        -24.66341   0.08684    72   %  0.6998
      73     -55.89608     31.23166        -24.66442   0.08584    73   %  0.7100
      74     -56.34799     31.68252        -24.66547   0.08478    74   %  0.7202
      75     -56.78944     32.12290        -24.66654   0.08371    75   %  0.7303
      76     -57.22569     32.55808        -24.66761   0.08264    76   %  0.7404
      77     -57.65624     32.98753        -24.66871   0.08155    77   %  0.7505
      78     -58.07634     33.40651        -24.66982   0.08043    78   %  0.7606
      79     -58.48984     33.81890        -24.67094   0.07932    79   %  0.7707
      80     -58.89699     34.22493        -24.67206   0.07819    80   %  0.7808
      81     -59.29532     34.62211        -24.67321   0.07705    81   %  0.7909
      82     -59.68982     35.01548        -24.67435   0.07591    82   %  0.8011
      83     -60.07254     35.39703        -24.67552   0.07474    83   %  0.8111
      84     -60.45411     35.77744        -24.67667   0.07359    84   %  0.8214
      85     -60.82225     36.14439        -24.67786   0.07240    85   %  0.8314
      86     -61.18537     36.50635        -24.67902   0.07124    86   %  0.8415
      87     -61.54035     36.86016        -24.68019   0.07006    87   %  0.8516
      88     -61.89191     37.21055        -24.68136   0.06889    88   %  0.8618
      89     -62.23316     37.55060        -24.68256   0.06769    89   %  0.8719
      90     -62.56702     37.88327        -24.68375   0.06651    90   %  0.8821
      91     -62.89538     38.21045        -24.68493   0.06532    91   %  0.8922
      92     -63.21828     38.53215        -24.68613   0.06413    92   %  0.9024
      93     -63.52776     38.84043        -24.68733   0.06292    93   %  0.9125
      94     -63.83444     39.14594        -24.68850   0.06176    94   %  0.9226
      95     -64.13149     39.44181        -24.68969   0.06057    95   %  0.9327
      96     -64.42162     39.73076        -24.69086   0.05939    96   %  0.9427
      97     -64.70666     40.01463        -24.69203   0.05822    97   %  0.9529
      98     -64.98127     40.28806        -24.69321   0.05704    98   %  0.9629
      99     -65.24954     40.55517        -24.69437   0.05589    99   %  0.9729
     100     -65.51439     40.81887        -24.69552   0.05473   100   %  0.9830
     101     -65.77061     41.07391        -24.69670   0.05356   101   %  0.9930
     102     -66.02046     41.32260        -24.69786   0.05239   102   %  1.0031
     103     -66.26535     41.56632        -24.69903   0.05123   103   %  1.0132
     104     -66.49978     41.79923        -24.70055   0.04970   104   %  1.0231
     105     -66.73021     42.02864        -24.70157   0.04869   105   %  1.0331
     106     -66.95214     42.24908        -24.70306   0.04720   106   %  1.0430
     107     -67.16749     42.46307        -24.70442   0.04584   107   %  1.0529
     108     -67.37776     42.67201        -24.70575   0.04450   108   %  1.0628
     109     -67.58032     42.87322        -24.70709   0.04316   109   %  1.0726
     110     -67.77866     43.07025        -24.70841   0.04184   110   %  1.0825
     111     -67.97026     43.26051        -24.70975   0.04051   111   %  1.0923
     112     -68.15413     43.44307        -24.71106   0.03919   112   %  1.1020
     113     -68.33511     43.62276        -24.71235   0.03790   113   %  1.1117
     114     -68.50775     43.79408        -24.71366   0.03659   114   %  1.1213
     115     -68.67728     43.96234        -24.71494   0.03532   115   %  1.1310
     116     -68.83933     44.12310        -24.71623   0.03402   116   %  1.1405
     117     -68.99593     44.27843        -24.71749   0.03276   117   %  1.1499
     118     -69.14621     44.42748        -24.71874   0.03152   118   %  1.1592
     119     -69.29401     44.57405        -24.71996   0.03030   119   %  1.1686
     120     -69.43468     44.71348        -24.72120   0.02906   120   %  1.1777
     121     -69.56997     44.84758        -24.72239   0.02786   121   %  1.1867
     122     -69.70240     44.97883        -24.72357   0.02669   122   %  1.1957
     123     -69.83030     45.10554        -24.72476   0.02550   123   %  1.2046
     124     -69.95297     45.22704        -24.72593   0.02433   124   %  1.2133
     125     -70.07149     45.34442        -24.72706   0.02319   125   %  1.2219
     126     -70.18526     45.45708        -24.72818   0.02208   126   %  1.2302
     127     -70.29550     45.56624        -24.72926   0.02100   127   %  1.2384
     128     -70.40179     45.67146        -24.73032   0.01993   128   %  1.2463
     129     -70.50517     45.77382        -24.73135   0.01890   129   %  1.2541
     130     -70.60514     45.87278        -24.73237   0.01789   130   %  1.2616
     131     -70.70265     45.96930        -24.73334   0.01691   131   %  1.2689
     132     -70.79779     46.06377        -24.73402   0.01624   132   %  1.2759
     133     -70.89071     46.15561        -24.73510   0.01516   133   %  1.2827
     134     -70.98070     46.24498        -24.73572   0.01454   134   %  1.2891
     135     -71.06740     46.33096        -24.73644   0.01382   135   %  1.2952
     136     -71.15157     46.41446        -24.73711   0.01315   136   %  1.3009
     137     -71.23479     46.49704        -24.73775   0.01250   137   %  1.3063
     138     -71.31522     46.57683        -24.73839   0.01187   138   %  1.3114
     139     -71.39355     46.65456        -24.73899   0.01126   139   %  1.3162
     140     -71.47025     46.73067        -24.73958   0.01068   140   %  1.3207
     141     -71.54351     46.80336        -24.74015   0.01010   141   %  1.3250
     142     -71.61538     46.87468        -24.74070   0.00956   142   %  1.3291
     143     -71.68366     46.94241        -24.74125   0.00901   143   %  1.3331
     144     -71.74933     47.00756        -24.74177   0.00849   144   %  1.3371
     145     -71.81276     47.07048        -24.74228   0.00797   145   %  1.3413
     146     -71.87397     47.13116        -24.74280   0.00745   146   %  1.3459
     147     -71.93134     47.18800        -24.74333   0.00692   147   %  1.3510
     148     -71.98650     47.24266        -24.74384   0.00641   148   %  1.3568
     149     -72.03819     47.29382        -24.74437   0.00588   149   %  1.3636
     150     -72.08710     47.34220        -24.74489   0.00536   150   %  1.3713
     151     -72.13265     47.38721        -24.74543   0.00482   151   %  1.3801
     152     -72.17541     47.42946        -24.74595   0.00431   152   %  1.3897
     153     -72.21442     47.46791        -24.74651   0.00374   153   %  1.4000
     154     -72.25078     47.50416        -24.74663   0.00363   154   %  1.4112
     155     -72.27908     47.53480        -24.74428   0.00598   155   %  1.4209
     156     -72.29350     47.57251        -24.72098   0.02927   156   %  1.4305
     157     -72.30802     47.61719        -24.69083   0.05942   157   %  1.4324
     158     -72.31124     47.67777        -24.63347   0.11678   158   %  1.4391
     159     -72.32661     47.72709        -24.59952   0.15073   159   %  1.4404
     160     -72.32581     47.79425        -24.53156   0.21869   160   %  1.4474
     161     -72.34334     47.84473        -24.49861   0.25165   161   %  1.4482
     162     -72.33879     47.91200        -24.42679   0.32346   162   %  1.4552
     163     -72.35743     47.96196        -24.39546   0.35479   163   %  1.4555
     164     -72.34923     48.03068        -24.31856   0.43170   164   %  1.4626
     165     -72.36948     48.08090        -24.28858   0.46168   165   %  1.4625
     166     -72.35703     48.15301        -24.20402   0.54623   166   %  1.4697
     167     -72.37975     48.20471        -24.17504   0.57521   167   %  1.4692
     168     -72.36354     48.27946        -24.08408   0.66618   168   %  1.4763
     169     -72.38839     48.33247        -24.05592   0.69434   169   %  1.4755
     170     -72.36813     48.41138        -23.95675   0.79351   170   %  1.4826
     171     -72.39546     48.46524        -23.93022   0.82003   171   %  1.4815
     172     -72.37240     48.54624        -23.82616   0.92409   172   %  1.4884
     173     -72.40150     48.60089        -23.80061   0.94964   173   %  1.4870
     174     -72.37580     48.68364        -23.69217   1.05809   174   %  1.4939
     175     -72.40629     48.73857        -23.66772   1.08254   175   %  1.4922
     176     -72.37722     48.82611        -23.55111   1.19915   176   %  1.4990
     177     -72.41016     48.88312        -23.52704   1.22322   177   %  1.4971
     178     -72.37722     48.97697        -23.40025   1.35001   178   %  1.5038
     179     -72.41296     49.03597        -23.37699   1.37326   179   %  1.5017
     180     -72.37567     49.13866        -23.23701   1.51324   180   %  1.5083
     181     -72.41468     49.19940        -23.21527   1.53498   181   %  1.5060
     182     -72.37462     49.30954        -23.06508   1.68517   182   %  1.5125
     183     -72.41594     49.37077        -23.04518   1.70508   183   %  1.5101
     184     -72.37057     49.49303        -22.87754   1.87272   184   %  1.5166
     185     -72.41618     49.55802        -22.85817   1.89209   185   %  1.5140
     186     -72.36819     49.69066        -22.67753   2.07272   186   %  1.5203
     187     -72.41626     49.75664        -22.65962   2.09064   187   %  1.5175
     188     -72.36576     49.89859        -22.46717   2.28308   188   %  1.5236
     189     -72.41619     49.96617        -22.45002   2.30024   189   %  1.5207
     190     -72.36247     50.11834        -22.24414   2.50612   190   %  1.5267
     191     -72.41532     50.18752        -22.22780   2.52246   191   %  1.5236
     192     -72.35791     50.35481        -22.00310   2.74716   192   %  1.5295
     193     -72.41386     50.42639        -21.98747   2.76278   193   %  1.5263
     194     -72.35287     50.61059        -21.74228   3.00797   194   %  1.5321
     195     -72.41189     50.68436        -21.72753   3.02273   195   %  1.5288
     196     -72.34662     50.88966        -21.45696   3.29330   196   %  1.5345
     197     -72.40931     50.96643        -21.44288   3.30737   197   %  1.5311
     198     -72.34149     51.19267        -21.14882   3.60144   198   %  1.5366
     199     -72.40668     51.27081        -21.13587   3.61439   199   %  1.5331
     200     -72.32858     51.53482        -20.79376   3.95649   200   %  1.5389
     201     -72.40037     51.61926        -20.78111   3.96914   201   %  1.5351
     202     -72.32312     51.92501        -20.39812   4.35214   202   %  1.5405
     203     -72.39777     52.01088        -20.38689   4.36336   203   %  1.5366
     204     -72.31480     52.34337        -19.97143   4.77882   204   %  1.5421
     205     -72.39347     52.43301        -19.96046   4.78979   205   %  1.5381
     206     -72.42594     52.43865        -19.98729   4.76296   206   %  1.5344
     207     -72.39511     52.47237        -19.92273   4.82752   207   %  1.5385
     208     -72.42656     52.52841        -19.89815   4.85211   208   %  1.5347
     209     -72.39268     52.60942        -19.78325   4.96700   209   %  1.5389
     210     -72.42622     52.66730        -19.75892   4.99133   210   %  1.5350
     211     -72.38969     52.75818        -19.63150   5.11875   211   %  1.5393
     212     -72.42566     52.81801        -19.60765   5.14261   212   %  1.5354
     213     -72.38891     52.91029        -19.47862   5.27164   213   %  1.5395
     214     -72.42539     52.96943        -19.45597   5.29429   214   %  1.5356
     215     -72.38515     53.06840        -19.31675   5.43351   215   %  1.5399
     216     -72.42456     53.13045        -19.29412   5.45614   216   %  1.5360
     217     -72.38404     53.23264        -19.15139   5.59886   217   %  1.5401
     218     -72.42413     53.29394        -19.13019   5.62007   218   %  1.5362
     219     -72.38015     53.40341        -18.97675   5.77351   219   %  1.5405
     220     -72.42314     53.46752        -18.95563   5.79463   220   %  1.5365
     221     -72.37785     53.58302        -18.79483   5.95543   221   %  1.5408
     222     -72.42244     53.64779        -18.77465   5.97561   222   %  1.5368
     223     -72.37592     53.76764        -18.60828   6.14198   223   %  1.5410
     224     -72.42147     53.83210        -18.58937   6.16089   224   %  1.5370
     225     -72.37318     53.95901        -18.41417   6.33608   225   %  1.5412
     226     -72.42047     54.02446        -18.39601   6.35424   226   %  1.5372
     227     -72.36942     54.16022        -18.20920   6.54105   227   %  1.5415
     228     -72.41951     54.22851        -18.19100   6.55926   228   %  1.5374
     229     -72.36533     54.37400        -17.99133   6.75892   229   %  1.5417
     230     -72.41742     54.44298        -17.97444   6.77582   230   %  1.5377
     231     -72.35848     54.60870        -17.74978   7.00047   231   %  1.5421
     232     -72.41516     54.68202        -17.73314   7.01712   232   %  1.5379
     233     -72.35404     54.86190        -17.49214   7.25812   233   %  1.5423
     234     -72.41276     54.93569        -17.47707   7.27318   234   %  1.5381
     235     -72.35154     55.12882        -17.22271   7.52754   235   %  1.5423
     236     -72.41145     55.20270        -17.20875   7.54151   236   %  1.5382
     237     -72.34574     55.41061        -16.93514   7.81512   237   %  1.5425
     238     -72.40884     55.48744        -16.92139   7.82886   238   %  1.5383
     239     -72.34309     55.71068        -16.63240   8.11786   239   %  1.5425
     240     -72.40743     55.78780        -16.61963   8.13063   240   %  1.5383
     241     -72.33466     56.03292        -16.30173   8.44852   241   %  1.5428
     242     -72.40345     56.11450        -16.28895   8.46130   242   %  1.5385
     243     -72.32307     56.40119        -15.92188   8.82837   243   %  1.5431
     244     -72.39742     56.48754        -15.90988   8.84038   244   %  1.5388
     245     -72.30937     56.83273        -15.47665   9.27361   245   %  1.5434
     246     -72.38936     56.92339        -15.46597   9.28428   246   %  1.5391


           POTENTIAL ENERGY HAS STOPPED DROPPING


 **********************
 *                    *
 * JOB ENDED NORMALLY *
 *                    *
 **********************



 TOTAL JOB TIME:             0.13 SECONDS

 == MOPAC DONE ==
