 *******************************************************************************
 ** Site#:  999         For non-commercial use only           Version 21.129  **
 *******************************************************************************
 ** Cite this program as: MOPAC2016, Version: 21.129 , James J. P. Stewart,   **
 ** Stewart Computational Chemistry, web-site: HTTP://OpenMOPAC.net.          **
 *******************************************************************************
 **                                                                           **
 **                                MOPAC2016                                  **
 **                                                                           **
 *******************************************************************************

                              PM7 CALCULATION RESULTS

 *******************************************************************************
 *  CALCULATION DONE:                                Sun Nov 20 12:23:42 2022  *
 *  PM7        - The PM7 Hamiltonian to be used
 *
 *
 *
 *                 CHARGE ON SYSTEM = 0
 *
 *
 *
 *  IRC=N      - INTRINSIC REACTION COORDINATE  1 DEFINED
 *  PRECISE    - TIGHTER CRITERIA TO BE USED
 *  THREADS=1  - MULTI-THREADING NOT USED
 *  T=         - A TIME OF 172800.0 SECONDS REQUESTED
 *  DUMP=N     - RESTART FILE WRITTEN EVERY 7200.0 SECONDS REQUESTED
 *  CYCLES=    - DO A MAXIMUM OF 5000 STEPS
 *  OLDENS     - INITIAL DENSITY MATRIX READ OFF DISK
 *******************************************************************************
   pm7 threads=1 charge=0 irc= 1 oldens precise cycles=5000
 title
 title
   ATOM   CHEMICAL          X               Y               Z
  NUMBER   SYMBOL      (ANGSTROMS)     (ANGSTROMS)     (ANGSTROMS)
 
     1       C          0.00000000  *   0.00000000  *   0.00000000  *
     2       O          1.31996841  *   0.00000000  *   0.00000000  *
     3       O         -0.52001108  *   1.19456039  *   0.00000000  *
     4       H         -0.05274126  *   2.03895193  *  -0.01095967  *
     5       H          2.01418338  *  -0.09561481  *  -0.60058076  *
 


          CARTESIAN COORDINATES 

    NO.       ATOM           X           Y           Z

     1         C          0.0000      0.0000      0.0000
     2         O          1.3200      0.0000      0.0000
     3         O         -0.5200      1.1946      0.0000
     4         H         -0.0527      2.0390     -0.0110
     5         H          2.0142     -0.0956     -0.6006

 General Reference for PM7:
 "Optimization of Parameters for Semiempirical Methods VI: More Modifications to the 
 NDDO Approximations and Re-optimization of Parameters", J. J. P. Stewart, J. Mol. Mod., 1:32, 19 (2013)
 https://link.springer.com/article/10.1007/s00894-012-1667-x

           Empirical Formula: C H2 O2  =     5 atoms



      MOLECULAR POINT GROUP   :   C1  


      RHF CALCULATION, NO. OF DOUBLY OCCUPIED LEVELS = 9



          HEAT OF FORMATION =     -67.930041 KCALS/MOLE


          GRADIENT NORM =   0.05894


          TIME FOR SCF CALCULATION =    0.00

          TIME FOR DERIVATIVES     =    0.00

          MOLECULAR WEIGHT =   46.03


          ESTIMATED TIME TO COMPLETE CALCULATION =        0.23 SECONDS

    FOR POINT-GROUP C1   THERE ARE   1 UNIQUE SYMMETRY FUNCTIONS.

 STEP:   1 TIME =     0.00 SECS, INTEGRAL =      0.00 TIME LEFT: 172800.00
 STEP:   2 TIME =     0.00 SECS, INTEGRAL =      0.00 TIME LEFT: 172799.99
 STEP:   3 TIME =     0.00 SECS, INTEGRAL =      0.00 TIME LEFT: 172799.99
 STEP:   4 TIME =     0.00 SECS, INTEGRAL =      0.01 TIME LEFT: 172799.99
 STEP:   5 TIME =     0.00 SECS, INTEGRAL =      0.01 TIME LEFT: 172799.99
 STEP:   6 TIME =     0.00 SECS, INTEGRAL =      0.01 TIME LEFT: 172799.98
 STEP:   7 TIME =     0.00 SECS, INTEGRAL =      0.02 TIME LEFT: 172799.98
 STEP:   8 TIME =     0.00 SECS, INTEGRAL =      0.02 TIME LEFT: 172799.98
 STEP:   9 TIME =     0.00 SECS, INTEGRAL =      0.02 TIME LEFT: 172799.98
 STEP:  10 TIME =     0.00 SECS, INTEGRAL =      0.02 TIME LEFT: 172799.98
 STEP:  11 TIME =     0.00 SECS, INTEGRAL =      0.02 TIME LEFT: 172799.97
 STEP:  12 TIME =     0.00 SECS, INTEGRAL =      0.02 TIME LEFT: 172799.97
 STEP:  13 TIME =     0.00 SECS, INTEGRAL =      0.03 TIME LEFT: 172799.97
 STEP:  14 TIME =     0.00 SECS, INTEGRAL =      0.03 TIME LEFT: 172799.97
 STEP:  15 TIME =     0.00 SECS, INTEGRAL =      0.03 TIME LEFT: 172799.96
  Stopping critera: r_ij>5*r_ij(0)
 
           INITIAL VELOCITY IN DRC (Angstroms/Femtosecond)
         0.02018         0.01928         0.03913
        -0.01432        -0.07576        -0.01046
        -0.00310         0.01261        -0.01495
        -0.06722         0.03400        -0.07800
         0.10325         0.73856         0.01511
 
  Deltat    =   0.24 fs
  Maxcyc    =      5000
  Jloop_lim =      5000
 
  Initial distance matrix
  Bond#     i     j    Ini_value(A)
      1     1     2          1.320
      2     1     3          1.303
      3     1     4          2.040
      4     1     5          2.104
      5     2     3          2.194
      6     2     4          2.458
      7     2     5          0.923
      8     3     4          0.965
      9     3     5          2.906
     10     4     5          3.029
 
 


     POINT   POTENTIAL  +  ENERGY LOST   =   TOTAL      ERROR    REF%   MOVEMENT
       1     -67.93004      0.00000        -67.93004   0.00000     1   %  0.0000
       2     -67.93009      0.00000        -67.93009  -0.00005     2   %  0.0019
       3     -67.93021      0.00000        -67.93021  -0.00017     3   %  0.0038
       4     -67.93203      0.00000        -67.93203  -0.00199     4   %  0.0144
       5     -67.93585      0.00000        -67.93585  -0.00581     5   %  0.0250
       6     -67.94165      0.00000        -67.94165  -0.01161     6   %  0.0355
       7     -67.94939      0.00000        -67.94939  -0.01935     7   %  0.0461
       8     -67.95915      0.00000        -67.95915  -0.02911     8   %  0.0567
       9     -67.97090      0.00000        -67.97090  -0.04086     9   %  0.0673
      10     -67.98458      0.00000        -67.98458  -0.05454    10   %  0.0779
      11     -68.00026      0.00000        -68.00026  -0.01568    11   %  0.0885
      12     -68.01485      0.03115        -67.98370   0.00088    12   %  0.0977
      13     -68.02843      0.06182        -67.96661   0.01798    13   %  0.1059
      14     -68.04120      0.09983        -67.94137   0.04322    14   %  0.1125
      15     -68.05548      0.14334        -67.91214   0.07245    15   %  0.1194
      16     -68.07089      0.18780        -67.88308   0.10150    16   %  0.1259
      17     -68.08820      0.23168        -67.85652   0.12807    17   %  0.1335
      18     -68.10749      0.27507        -67.83242   0.15216    18   %  0.1409
      19     -68.12895      0.31798        -67.81097   0.17362    19   %  0.1493
      20     -68.15272      0.36077        -67.79195   0.19263    20   %  0.1575
      21     -68.17859      0.40225        -67.77634   0.20824    21   %  0.1665
      22     -68.20747      0.44437        -67.76310   0.22149    22   %  0.1756
      23     -68.23885      0.48599        -67.75286   0.23172    23   %  0.1855
      24     -68.27244      0.52720        -67.74524   0.23934    24   %  0.1950
      25     -68.30897      0.56873        -67.74024   0.24435    25   %  0.2054
      26     -68.34787      0.61100        -67.73687   0.24771    26   %  0.2156
      27     -68.38877      0.65361        -67.73516   0.24942    27   %  0.2262
      28     -68.43181      0.69768        -67.73412   0.25046    28   %  0.2367
      29     -68.47645      0.74287        -67.73358   0.25100    29   %  0.2472
      30     -68.52283      0.78959        -67.73323   0.25135    30   %  0.2577
      31     -68.57104      0.83808        -67.73296   0.25162    31   %  0.2683
      32     -68.62104      0.88833        -67.73270   0.25188    32   %  0.2788
      33     -68.67315      0.94070        -67.73246   0.25213    33   %  0.2894
      34     -68.72616      0.99396        -67.73221   0.25238    34   %  0.2999
      35     -68.78068      1.04871        -67.73196   0.25262    35   %  0.3104
      36     -68.83668      1.10495        -67.73173   0.25285    36   %  0.3209
      37     -68.89463      1.16313        -67.73150   0.25309    37   %  0.3314
      38     -68.95388      1.22261        -67.73127   0.25331    38   %  0.3419
      39     -69.01447      1.28342        -67.73105   0.25354    39   %  0.3524
      40     -69.07710      1.34627        -67.73083   0.25375    40   %  0.3630
      41     -69.14004      1.40943        -67.73061   0.25397    41   %  0.3734
      42     -69.20464      1.47423        -67.73041   0.25417    42   %  0.3839
      43     -69.27005      1.53984        -67.73021   0.25437    43   %  0.3943
      44     -69.33691      1.60689        -67.73002   0.25456    44   %  0.4047
      45     -69.40527      1.67543        -67.72984   0.25475    45   %  0.4152
      46     -69.47468      1.74502        -67.72966   0.25493    46   %  0.4257
      47     -69.54460      1.81512        -67.72949   0.25510    47   %  0.4361
      48     -69.61646      1.88714        -67.72932   0.25526    48   %  0.4466
      49     -69.68940      1.96023        -67.72917   0.25542    49   %  0.4571
      50     -69.76278      2.03377        -67.72901   0.25557    50   %  0.4676
      51     -69.83680      2.10793        -67.72887   0.25571    51   %  0.4780
      52     -69.91095      2.18221        -67.72874   0.25584    52   %  0.4883
      53     -69.98625      2.25763        -67.72862   0.25596    53   %  0.4987
      54     -70.06277      2.33426        -67.72851   0.25607    54   %  0.5091
      55     -70.13985      2.41145        -67.72841   0.25618    55   %  0.5196
      56     -70.21699      2.48868        -67.72831   0.25627    56   %  0.5299
      57     -70.29467      2.56645        -67.72823   0.25636    57   %  0.5403
      58     -70.37266      2.64451        -67.72815   0.25643    58   %  0.5506
      59     -70.45090      2.72282        -67.72808   0.25650    59   %  0.5610
      60     -70.53019      2.80216        -67.72803   0.25656    60   %  0.5714
      61     -70.60896      2.88097        -67.72798   0.25660    61   %  0.5817
      62     -70.69168      2.96373        -67.72795   0.25664    62   %  0.5925
      63     -70.78864      3.06072        -67.72791   0.25667    63   %  0.6051
      64     -70.90594      3.17807        -67.72787   0.25671    64   %  0.6203
      65     -71.02703      3.29918        -67.72785   0.25674    65   %  0.6360
      66     -71.14671      3.41885        -67.72785   0.25673    66   %  0.6516
      67     -71.26566      3.53776        -67.72789   0.25669    67   %  0.6671
      68     -71.38515      3.65718        -67.72797   0.25661    68   %  0.6828
      69     -71.47821      3.75010        -67.72811   0.25647    69   %  0.6951
      70     -71.55515      3.82693        -67.72823   0.25636    70   %  0.7054
      71     -71.63152      3.90319        -67.72832   0.25626    71   %  0.7156
      72     -71.70665      3.97822        -67.72843   0.25615    72   %  0.7258
      73     -71.78087      4.05232        -67.72855   0.25604    73   %  0.7359
      74     -71.85383      4.12515        -67.72868   0.25591    74   %  0.7459
      75     -71.92654      4.19772        -67.72882   0.25577    75   %  0.7560
      76     -71.99786      4.26889        -67.72897   0.25561    76   %  0.7660
      77     -72.06852      4.33939        -67.72913   0.25545    77   %  0.7761
      78     -72.13780      4.40850        -67.72931   0.25528    78   %  0.7861
      79     -72.20572      4.47623        -67.72949   0.25509    79   %  0.7960
      80     -72.27308      4.54340        -67.72968   0.25490    80   %  0.8060
      81     -72.33942      4.60953        -67.72989   0.25470    81   %  0.8161
      82     -72.40356      4.67346        -67.73011   0.25448    82   %  0.8259
      83     -72.46664      4.73636        -67.73029   0.25430    83   %  0.8358
      84     -72.52796      4.79743        -67.73053   0.25405    84   %  0.8456
      85     -72.58839      4.85766        -67.73073   0.25385    85   %  0.8555
      86     -72.64674      4.91574        -67.73100   0.25358    86   %  0.8653
      87     -72.70361      4.97240        -67.73121   0.25337    87   %  0.8750
      88     -72.75889      5.02745        -67.73144   0.25315    88   %  0.8847
      89     -72.81286      5.08118        -67.73168   0.25291    89   %  0.8945
      90     -72.86523      5.13331        -67.73193   0.25266    90   %  0.9042
      91     -72.91574      5.18355        -67.73219   0.25240    91   %  0.9139
      92     -72.96441      5.23195        -67.73245   0.25213    92   %  0.9235
      93     -73.01152      5.27879        -67.73272   0.25186    93   %  0.9331
      94     -73.05641      5.32341        -67.73300   0.25158    94   %  0.9427
      95     -73.09994      5.36665        -67.73329   0.25130    95   %  0.9523
      96     -73.14097      5.40739        -67.73358   0.25100    96   %  0.9617
      97     -73.18014      5.44626        -67.73387   0.25071    97   %  0.9711
      98     -73.21741      5.48324        -67.73417   0.25041    98   %  0.9804
      99     -73.25301      5.51853        -67.73448   0.25010    99   %  0.9898
     100     -73.28641      5.55161        -67.73480   0.24979   100   %  0.9991
     101     -73.31822      5.58311        -67.73511   0.24947   101   %  1.0085
     102     -73.34756      5.61212        -67.73544   0.24914   102   %  1.0176
     103     -73.37492      5.63914        -67.73577   0.24881   103   %  1.0267
     104     -73.40026      5.66415        -67.73611   0.24848   104   %  1.0358
     105     -73.42372      5.68728        -67.73645   0.24814   105   %  1.0448
     106     -73.44532      5.70853        -67.73679   0.24779   106   %  1.0539
     107     -73.46460      5.72745        -67.73716   0.24743   107   %  1.0627
     108     -73.48184      5.74435        -67.73749   0.24709   108   %  1.0714
     109     -73.49702      5.75930        -67.73772   0.24687   109   %  1.0804
     110     -73.50913      5.77309        -67.73604   0.24855   110   %  1.0879
     111     -73.51165      5.79164        -67.72002   0.26457   111   %  1.0964
     112     -73.51758      5.82876        -67.68882   0.29577   112   %  1.0956
     113     -73.51754      5.87631        -67.64123   0.34336   113   %  1.1019
     114     -73.52306      5.92562        -67.59745   0.38714   114   %  1.1005
     115     -73.52237      5.97677        -67.54560   0.43898   115   %  1.1066
     116     -73.52771      6.02585        -67.50186   0.48273   116   %  1.1049
     117     -73.52621      6.07679        -67.44942   0.53516   117   %  1.1108
     118     -73.53128      6.12641        -67.40487   0.57971   118   %  1.1088
     119     -73.52948      6.17735        -67.35214   0.63245   119   %  1.1144
     120     -73.53395      6.22755        -67.30639   0.67819   120   %  1.1123
     121     -73.53200      6.27934        -67.25266   0.73192   121   %  1.1177
     122     -73.53642      6.32920        -67.20722   0.77736   122   %  1.1154
     123     -73.53383      6.38076        -67.15307   0.83152   123   %  1.1207
     124     -73.53815      6.43131        -67.10684   0.87775   124   %  1.1181
     125     -73.53598      6.48179        -67.05419   0.93039   125   %  1.1232
     126     -73.53945      6.53117        -67.00828   0.97631   126   %  1.1206
     127     -73.53696      6.58255        -66.95441   1.03018   127   %  1.1255
     128     -73.54082      6.63231        -66.90851   1.07607   128   %  1.1228
     129     -73.53784      6.68364        -66.85420   1.13038   129   %  1.1276
     130     -73.54182      6.73344        -66.80838   1.17620   130   %  1.1248
     131     -73.53864      6.78460        -66.75403   1.23055   131   %  1.1294
     132     -73.54258      6.83435        -66.70823   1.27636   132   %  1.1265
     133     -73.53929      6.88545        -66.65385   1.33074   133   %  1.1311
     134     -73.54318      6.93516        -66.60803   1.37656   134   %  1.1281
     135     -73.53983      6.98616        -66.55367   1.43091   135   %  1.1325
     136     -73.54367      7.03578        -66.50789   1.47669   136   %  1.1295
     137     -73.54026      7.08671        -66.45355   1.53103   137   %  1.1338
     138     -73.54405      7.13632        -66.40773   1.57685   138   %  1.1308
     139     -73.54060      7.18728        -66.35332   1.63127   139   %  1.1350
     140     -73.54437      7.23688        -66.30749   1.67709   140   %  1.1319
     141     -73.54090      7.28770        -66.25320   1.73139   141   %  1.1360
     142     -73.54462      7.33715        -66.20747   1.77711   142   %  1.1329
     143     -73.54110      7.38796        -66.15313   1.83145   143   %  1.1369
     144     -73.54479      7.43757        -66.10722   1.87736   144   %  1.1338
     145     -73.54127      7.48855        -66.05272   1.93187   145   %  1.1378
     146     -73.54500      7.53808        -66.00692   1.97766   146   %  1.1346
     147     -73.54079      7.59063        -65.95016   2.03442   147   %  1.1386
     148     -73.54546      7.64096        -65.90450   2.08009   148   %  1.1354
     149     -73.54088      7.69283        -65.84804   2.13654   149   %  1.1393
     150     -73.54565      7.74254        -65.80311   2.18147   150   %  1.1361
     151     -73.54069      7.79461        -65.74608   2.23850   151   %  1.1399
     152     -73.54600      7.84402        -65.70198   2.28261   152   %  1.1367
     153     -73.54034      7.89628        -65.64406   2.34052   153   %  1.1405
     154     -73.54594      7.94721        -65.59873   2.38585   154   %  1.1372
     155     -73.54026      8.00081        -65.53944   2.44514   155   %  1.1410
     156     -73.54628      8.05142        -65.49486   2.48972   156   %  1.1377
     157     -73.54020      8.10421        -65.43599   2.54860   157   %  1.1414
     158     -73.54656      8.15368        -65.39289   2.59170   158   %  1.1382
     159     -73.54010      8.20560        -65.33450   2.65009   159   %  1.1418
     160     -73.54638      8.25601        -65.29037   2.69421   160   %  1.1385
     161     -73.54043      8.30821        -65.23222   2.75237   161   %  1.1421
     162     -73.54627      8.35868        -65.18759   2.79700   162   %  1.1388
     163     -73.54050      8.41125        -65.12926   2.85533   163   %  1.1423
     164     -73.54630      8.46169        -65.08462   2.89997   164   %  1.1391
     165     -73.54066      8.51386        -65.02680   2.95778   165   %  1.1426
     166     -73.54632      8.56382        -64.98250   3.00208   166   %  1.1394
     167     -73.54054      8.61618        -64.92437   3.06022   167   %  1.1428
     168     -73.54625      8.66690        -64.87935   3.10523   168   %  1.1396
     169     -73.54056      8.71983        -64.82073   3.16386   169   %  1.1430
     170     -73.54642      8.77014        -64.77628   3.20831   170   %  1.1398
     171     -73.54010      8.82366        -64.71644   3.26814   171   %  1.1433
     172     -73.54666      8.87421        -64.67245   3.31213   172   %  1.1401
     173     -73.53965      8.92821        -64.61143   3.37315   173   %  1.1435
     174     -73.54702      8.97841        -64.56861   3.41597   174   %  1.1403
     175     -73.53925      9.03207        -64.50717   3.47741   175   %  1.1437
     176     -73.54723      9.08202        -64.46521   3.51938   176   %  1.1405
     177     -73.53926      9.13478        -64.40448   3.58010   177   %  1.1438
     178     -73.54717      9.18467        -64.36250   3.62208   178   %  1.1406
     179     -73.53883      9.23871        -64.30011   3.68447   179   %  1.1439
     180     -73.54751      9.28849        -64.25903   3.72556   180   %  1.1408
     181     -73.53802      9.34327        -64.19475   3.78984   181   %  1.1441
     182     -73.54770      9.39393        -64.15377   3.83081   182   %  1.1409
     183     -73.53827      9.44759        -64.09068   3.89390   183   %  1.1442
     184     -73.54778      9.49686        -64.05092   3.93367   184   %  1.1410
     185     -73.53792      9.55054        -63.98738   3.99720   185   %  1.1443
     186     -73.54788      9.60009        -63.94779   4.03679   186   %  1.1411
     187     -73.53719      9.65525        -63.88193   4.10265   187   %  1.1444
     188     -73.54817      9.70521        -63.84297   4.14162   188   %  1.1412
     189     -73.53619      9.76166        -63.77453   4.21006   189   %  1.1445
     190     -73.54838      9.81260        -63.73578   4.24880   190   %  1.1413
     191     -73.53571      9.86947        -63.66624   4.31835   191   %  1.1446
     192     -73.54865      9.91961        -63.62904   4.35554   192   %  1.1414
     193     -73.53525      9.97591        -63.55934   4.42524   193   %  1.1447
     194     -73.54872     10.02613        -63.52259   4.46199   194   %  1.1414
     195     -73.53490     10.08277        -63.45213   4.53246   195   %  1.1447
     196     -73.54872     10.13381        -63.41491   4.56967   196   %  1.1415
     197     -73.53499     10.19048        -63.34451   4.64008   197   %  1.1447
     198     -73.54879     10.24086        -63.30792   4.67666   198   %  1.1415
     199     -73.53407     10.29911        -63.23496   4.74962   199   %  1.1448
     200     -73.54891     10.35072        -63.19819   4.78639   200   %  1.1415
     201     -73.53380     10.40925        -63.12455   4.86003   201   %  1.1448
     202     -73.54897     10.46084        -63.08813   4.89646   202   %  1.1416
     203     -73.53378     10.51900        -63.01478   4.96980   203   %  1.1448
     204     -73.54895     10.57066        -62.97829   5.00630   204   %  1.1415
     205     -73.53346     10.62967        -62.90379   5.08080   205   %  1.1448
     206     -73.54913     10.68064        -62.86849   5.11609   206   %  1.1416
     207     -73.53228     10.74099        -62.79129   5.19330   207   %  1.1449
     208     -73.54933     10.79222        -62.75712   5.22747   208   %  1.1417
     209     -73.53082     10.85429        -62.67653   5.30805   209   %  1.1449
     210     -73.54952     10.90580        -62.64372   5.34087   210   %  1.1418
     211     -73.52964     10.96872        -62.56092   5.42366   211   %  1.1450
     212     -73.54957     11.02125        -62.52832   5.45626   212   %  1.1418
     213     -73.52952     11.08388        -62.44564   5.53895   213   %  1.1450
     214     -73.54958     11.13620        -62.41338   5.57121   214   %  1.1417
     215     -73.52933     11.19897        -62.33036   5.65423   215   %  1.1449
     216     -73.54963     11.25044        -62.29918   5.68540   216   %  1.1418
     217     -73.52878     11.31343        -62.21535   5.76923   217   %  1.1449
     218     -73.54964     11.36511        -62.18453   5.80005   218   %  1.1417
     219     -73.52723     11.43090        -62.09632   5.88826   219   %  1.1450
     220     -73.54967     11.48423        -62.06544   5.91914   220   %  1.1418
     221     -73.52626     11.55159        -61.97467   6.00991   221   %  1.1450
     222     -73.54967     11.60468        -61.94499   6.03959   222   %  1.1418
     223     -73.52574     11.67199        -61.85375   6.13084   223   %  1.1450
     224     -73.54966     11.72496        -61.82470   6.15988   224   %  1.1418
     225     -73.52532     11.79251        -61.73281   6.25177   225   %  1.1450
     226     -73.54966     11.84638        -61.70328   6.28130   226   %  1.1417
     227     -73.52497     11.91487        -61.61010   6.37449   227   %  1.1449
     228     -73.54965     11.96894        -61.58071   6.40388   228   %  1.1417
     229     -73.52435     12.03860        -61.48574   6.49884   229   %  1.1449
     230     -73.54961     12.09241        -61.45719   6.52739   230   %  1.1417
     231     -73.52387     12.16232        -61.36155   6.62304   231   %  1.1449
     232     -73.54957     12.21587        -61.33370   6.65088   232   %  1.1417
     233     -73.52202     12.28893        -61.23309   6.75150   233   %  1.1449
     234     -73.54938     12.34322        -61.20616   6.77842   234   %  1.1417
     235     -73.52014     12.41931        -61.10083   6.88375   235   %  1.1450
     236     -73.54928     12.47526        -61.07402   6.91057   236   %  1.1417
     237     -73.51817     12.55482        -60.96335   7.02124   237   %  1.1450
     238     -73.54903     12.61201        -60.93702   7.04756   238   %  1.1417
     239     -73.51727     12.69313        -60.82414   7.16044   239   %  1.1450
     240     -73.54887     12.75004        -60.79882   7.18576   240   %  1.1417
     241     -73.51494     12.83512        -60.67982   7.30477   241   %  1.1450
     242     -73.54843     12.89321        -60.65522   7.32936   242   %  1.1418
     243     -73.51234     12.98337        -60.52897   7.45562   243   %  1.1451
     244     -73.54787     13.04233        -60.50554   7.47904   244   %  1.1418
     245     -73.51072     13.13545        -60.37528   7.60931   245   %  1.1451
     246     -73.54738     13.19407        -60.35331   7.63128   246   %  1.1419
     247     -73.50665     13.29488        -60.21176   7.77282   247   %  1.1452
     248     -73.54657     13.35679        -60.18978   7.79481   248   %  1.1419
     249     -73.50379     13.46415        -60.03964   7.94494   249   %  1.1453
     250     -73.54546     13.52601        -60.01945   7.96513   250   %  1.1420
     251     -73.49959     13.64325        -59.85634   8.12825   251   %  1.1454
     252     -73.54408     13.70675        -59.83732   8.14726   252   %  1.1421
     253     -73.49588     13.83331        -59.66257   8.32202   253   %  1.1454
     254     -73.54291     13.89844        -59.64447   8.34011   254   %  1.1422
     255     -73.49195     14.03450        -59.45745   8.52713   255   %  1.1455
     256     -73.54141     14.10117        -59.44024   8.54434   256   %  1.1422
     257     -73.48624     14.25217        -59.23407   8.75051   257   %  1.1457
     258     -73.53938     14.32198        -59.21740   8.76719   258   %  1.1423


           POTENTIAL ENERGY HAS STOPPED DROPPING


 **********************
 *                    *
 * JOB ENDED NORMALLY *
 *                    *
 **********************



 TOTAL JOB TIME:             0.13 SECONDS

 == MOPAC DONE ==
