[Molden Format]
[FREQ]
551.4
593.1
956.9
1062.6
1231.8
1308.0
1840.5
2664.2
2787.7
       
[FR-COORD]
C -0.288372 -0.805023 -0.000188973
O 1.97949 -0.805023 -0.000188973
O -1.62441 1.37459 -0.000188973
H -1.60967 -2.37898 -0.00151178
H -0.590917 2.9304 0.00585815

[FR-NORM-COORD]
Vibration 1
-0.150233 -0.245286 -0.000188973
-0.144753 0.253601 0.000188973
0.214106 -0.0309915 0
-0.0496998 -0.277034 0.000188973
0.740584 -0.334293 -0.000188973
Vibration 2
0 0 0.13436
0 0 -0.061983
0 0.000188973 -0.137005
0 -0.000188973 0.20239
-0.000377945 -0.000944863 1.35418
Vibration 3
0 0.000188973 -0.266073
0 0 0.0695419
0 0 0.034393
-0.000377945 -0.000944863 1.29295
0 -0.000188973 0.226767
Vibration 4
0.0107714 -0.0368497 0
0.0565028 -0.041196 0
-0.14891 0.12132 0
0.592996 -0.488305 -0.000188973
0.745308 -0.344497 0
Vibration 5
-0.0774788 0.25568 0
-0.117919 -0.0334482 0
0.124344 -0.124722 0
0.966028 -0.628334 -0.000377945
-0.144942 0.0918407 0.000188973
Vibration 6
-0.0217318 0.199933 0
0.0202201 -0.00264562 0
-0.0281569 -0.146076 -0.000188973
-0.392496 0.462416 0
0.77441 -0.483392 0.000188973
Vibration 7
0.603012 -0.0308025 0
-0.444086 -0.00264562 0
-0.0393063 0.0120942 0
0.245286 0.419141 0
0.241129 -0.202957 0.000188973
Vibration 8
-0.0992106 -0.0874943 0
0.0120942 -0.00340151 0
0.00472431 -0.000188973 0
0.995697 1.2338 0.00132281
-0.0812582 -0.131525 -0.000188973
Vibration 9
-0.000566918 -0.0317474 -0.000188973
-0.00434637 0 0.000188973
-0.0457314 -0.0752111 0
0.0765339 0.116974 -0.00075589
0.72471 1.45528 0.00188973
