[Molden Format]
[FREQ]
448.0
471.5
665.8
857.0
969.3
1227.9
1378.9
2760.3
2776.4
       
[FR-COORD]
C -0.664617 -0.846975 0
O 1.88047 -0.846975 0
O -1.5269 1.45036 0
H 2.76391 -2.43453 -0.000377945
H -0.453912 2.951 0.000377945

[FR-NORM-COORD]
Vibration 1
0 0 -0.0731324
0 0 -0.113573
0 0 0.0653845
0 0 1.59776
0 0 0.0398732
Vibration 2
-0.127934 -0.178957 0
-0.138328 0.159493 0
0.173477 -0.0319364 0
0.308781 0.44503 0
0.65857 -0.338072 0
Vibration 3
0 0 0.154391
0 0 -0.0638727
0 0 -0.147966
0 0 0.0721875
0 0 1.45131
Vibration 4
0.0504557 0.0185193 0
-0.0941084 -0.0944863 0
0.0366607 0.0226767 0
0.844519 0.590539 0
-0.53517 0.330324 0
Vibration 5
0.0291018 -0.0359048 0
0.0795575 -0.089573 0
-0.18576 0.127745 0
0.542162 0.247176 0
0.796331 -0.424621 0
Vibration 6
0.48736 0.10488 0
-0.33297 0.0128501 0
-0.0423299 -0.0648176 0
-0.361694 -0.105069 0
0.513061 -0.318797 0
Vibration 7
-0.155335 0.453912 0
0.0298577 -0.0517785 0
0.034393 -0.282703 0
0.322198 0.284404 0
0.506825 -0.383992 0
Vibration 8
-0.00113384 -0.0272121 0
0.00491329 -0.00850377 0
-0.0434637 -0.0682191 0
-0.120376 0.160627 0
0.745308 1.3829 0.000188973
Vibration 9
0.0158737 -0.0143619 0
0.048566 -0.0706758 0
0.00377945 0.0130391 0
-0.927855 1.26404 0
-0.0924076 -0.17839 0
