[Molden Format]
[FREQ]
466.7
522.7
591.1
818.0
846.9
1242.1
1339.5
2737.2
2763.0
       
[FR-COORD]
C -0.530446 -0.875321 0
O 1.93754 -0.875321 0
O -1.67316 1.31185 0
H -0.960926 2.97726 0.000566918
H 3.08611 0.524588 0.00113384

[FR-NORM-COORD]
Vibration 1
-0.112061 -0.185004 0
-0.0856046 0.134548 0
0.158926 -0.013606 0
0.647609 -0.198421 0
-0.475833 0.48188 0
Vibration 2
0 0 0
0 0 -0.062361
0 0 0.062361
0 0.000188973 -0.882502
0 -0.000188973 0.882691
Vibration 3
0 0 0.175178
0 0 -0.112628
0 0 -0.112628
0 -0.000188973 0.744552
0 -0.000188973 0.744552
Vibration 4
0.0474321 -0.0287238 0
-0.0393063 0.0744552 0
-0.0840928 0.000377945 0
0.787449 -0.271365 0
0.605279 -0.572209 0
Vibration 5
0.013984 0.0230547 0
0.152312 -0.120376 0
-0.177256 0.0791795 0
0.716206 -0.175178 0
-0.486982 0.553501 0
Vibration 6
0.214106 0.353379 0
-0.220342 -0.0512116 0
0.0566918 -0.219019 0
0.459392 -0.226011 0.000188973
-0.413283 0.302545 0.000188973
Vibration 7
0.510226 -0.30897 0
-0.250956 -0.0300466 0
-0.089573 0.236405 0
-0.329946 0.215051 0
-0.343363 0.192752 0
Vibration 8
0.0109604 -0.00661404 0
0.0317474 0.0349599 0
-0.0164406 -0.0442196 0
0.260593 0.852266 0.000188973
-0.63457 -0.625877 -0.000188973
Vibration 9
-0.0132281 -0.0217318 0
-0.0336371 -0.0315584 0
-0.0122832 -0.0444086 0
0.243775 0.851888 0.000188973
0.642129 0.61057 0.000188973
