[Molden Format]
[FREQ]
-1700.2
841.3
973.7
1014.9
1112.7
1524.4
1634.0
2295.7
2709.3
       
[FR-COORD]
C -0.649877 -0.836015 0
O 1.76746 -0.836015 0
O -1.24609 1.50668 0
H -1.89048 -2.43189 0
H 1.35758 1.7463 0.00075589

[FR-NORM-COORD]
Vibration 1
-0.0912738 0.0710537 0
0.0391173 0.0629279 0
-0.0514005 -0.0534792 0
0.0723765 -0.0563138 0
1.21113 -0.941461 0
Vibration 2
-0.272687 -0.350922 0
-0.260971 0.428779 0
0.47999 -0.147021 0
-0.248499 -0.319553 0
0.0224877 0.0289128 0
Vibration 3
0 0 -0.2005
0 0 0.0236216
0 0 0.0236216
0 0 1.22454
0 0 0.417629
Vibration 4
0 0 0.16365
0 0 -0.102801
0 0 -0.102801
0 0 -0.101856
0 0 1.41862
Vibration 5
-0.0245664 0.0190862 0
-0.0856046 -0.0438416 0
0.0213539 0.0939194 0
1.31449 -1.02177 0
-0.000944863 0.00075589 0
Vibration 6
-0.253223 -0.325789 0
0.291963 0.00491329 0
-0.0672742 0.284026 0
-0.278546 -0.358292 0
-0.269853 -0.347143 0
Vibration 7
0.414795 -0.322387 0
-0.239239 0.0336371 0
-0.0914627 0.223555 0
-0.193508 0.150422 0
0.502289 -0.390417 0
Vibration 8
-0.0495108 -0.0636838 0
0.0198421 -0.0296687 0
-0.0336371 0.0119053 0
-0.129068 -0.166107 0
0.937304 1.20583 0.000188973
Vibration 9
-0.089573 -0.115084 0
0.00699199 -0.00510226 0
-0.00661404 0.00566918 0
0.984169 1.26593 0
0.075589 0.0971319 0
