 *******************************************************************************
 ** Site#:  999         For non-commercial use only           Version 21.129  **
 *******************************************************************************
 ** Cite this program as: MOPAC2016, Version: 21.129 , James J. P. Stewart,   **
 ** Stewart Computational Chemistry, web-site: HTTP://OpenMOPAC.net.          **
 *******************************************************************************
 **                                                                           **
 **                                MOPAC2016                                  **
 **                                                                           **
 *******************************************************************************

                              PM7 CALCULATION RESULTS

 *******************************************************************************
 *  CALCULATION DONE:                                Sun Nov 20 12:23:42 2022  *
 *  PM7        - The PM7 Hamiltonian to be used
 *
 *
 *
 *                 CHARGE ON SYSTEM = 0
 *
 *
 *
 *  LET        - OVERRIDE SOME SAFETY CHECKS
 *  FORCE      - FORCE CALCULATION SPECIFIED
 *  THREADS=1  - MULTI-THREADING NOT USED
 *  T=         - A TIME OF 172800.0 SECONDS REQUESTED
 *  DUMP=N     - RESTART FILE WRITTEN EVERY 7200.0 SECONDS REQUESTED
 *  THERMO     - THERMODYNAMIC QUANTITIES TO BE CALCULATED
 *******************************************************************************
  pm7 threads=1 charge=0 force let thermo(298,298)
 title
 title
   ATOM   CHEMICAL          X               Y               Z
  NUMBER   SYMBOL      (ANGSTROMS)     (ANGSTROMS)     (ANGSTROMS)
 
     1       C          0.00000000  *   0.00000000  *   0.00000000  *
     2       O          1.33754461  *   0.00000000  *   0.00000000  *
     3       O         -0.42198498  *   1.24984250  *   0.00000000  *
     4       H          1.80413358  *  -0.81932481  *   0.18613299  *
     5       H         -0.89985599  *   1.73153508  *  -0.64322291  *
 


          CARTESIAN COORDINATES 

    NO.       ATOM           X           Y           Z

     1         C          0.0000      0.0000      0.0000
     2         O          1.3375      0.0000      0.0000
     3         O         -0.4220      1.2498      0.0000
     4         H          1.8041     -0.8193      0.1861
     5         H         -0.8999      1.7315     -0.6432

 General Reference for PM7:
 "Optimization of Parameters for Semiempirical Methods VI: More Modifications to the 
 NDDO Approximations and Re-optimization of Parameters", J. J. P. Stewart, J. Mol. Mod., 1:32, 19 (2013)
 https://link.springer.com/article/10.1007/s00894-012-1667-x

           Empirical Formula: C H2 O2  =     5 atoms



      MOLECULAR POINT GROUP   :   C1  


      RHF CALCULATION, NO. OF DOUBLY OCCUPIED LEVELS = 9



          HEAT OF FORMATION =     -60.452218 KCALS/MOLE


          CARTESIAN COORDINATE DERIVATIVES

   NUMBER  ATOM         X            Y            Z

     1       C     -0.001439    -0.002332    -0.014161
     2       O     -0.003303     0.000307     0.002270
     3       O      0.005915     0.013657     0.013346
     4       H      0.000170     0.000103     0.001580
     5       H     -0.001344    -0.011735    -0.003035
 


          GRADIENT NORM =   0.02784


          TIME FOR SCF CALCULATION =    0.00

          TIME FOR DERIVATIVES     =    0.00

          MOLECULAR WEIGHT =   46.03



          ROTATIONAL CONSTANTS IN CM(-1)

          A =    2.92740373   B =    0.37822573   C =    0.34017732



           PRINCIPAL MOMENTS OF INERTIA IN UNITS OF 10**(-40)*GRAM-CM**2

          A =        9.5623   B =       74.0108   C =       82.2888


          ORIENTATION OF MOLECULE IN FORCE CALCULATION

    NO.       ATOM         X         Y         Z

     1          C      -0.3381   -0.4544    0.0100
     2          O       0.9995   -0.4544    0.0100
     3          O      -0.7601    0.7954    0.0100
     4          H       1.4661   -1.2738    0.1961
     5          H      -1.2379    1.2771   -0.6332


    FIRST DERIVATIVES WILL BE USED IN THE CALCULATION OF SECOND DERIVATIVES

          ESTIMATED TIME TO COMPLETE CALCULATION =        0.12 SECONDS

    FOR POINT-GROUP C1   THERE ARE   1 UNIQUE SYMMETRY FUNCTIONS.

 STEP:   1 TIME =     0.00 SECS, INTEGRAL =      0.00 TIME LEFT: 172800.00
 STEP:   2 TIME =     0.00 SECS, INTEGRAL =      0.00 TIME LEFT: 172800.00
 STEP:   3 TIME =     0.00 SECS, INTEGRAL =      0.00 TIME LEFT: 172799.99
 STEP:   4 TIME =     0.00 SECS, INTEGRAL =      0.00 TIME LEFT: 172799.99
 STEP:   5 TIME =     0.00 SECS, INTEGRAL =      0.00 TIME LEFT: 172799.99
 STEP:   6 TIME =     0.00 SECS, INTEGRAL =      0.00 TIME LEFT: 172799.99
 STEP:   7 TIME =     0.00 SECS, INTEGRAL =      0.00 TIME LEFT: 172799.99
 STEP:   8 TIME =     0.00 SECS, INTEGRAL =      0.01 TIME LEFT: 172799.99
 STEP:   9 TIME =     0.00 SECS, INTEGRAL =      0.01 TIME LEFT: 172799.99
 STEP:  10 TIME =     0.00 SECS, INTEGRAL =      0.01 TIME LEFT: 172799.99
 STEP:  11 TIME =     0.00 SECS, INTEGRAL =      0.01 TIME LEFT: 172799.99
 STEP:  12 TIME =     0.00 SECS, INTEGRAL =      0.01 TIME LEFT: 172799.99
 STEP:  13 TIME =     0.00 SECS, INTEGRAL =      0.01 TIME LEFT: 172799.98
 STEP:  14 TIME =     0.00 SECS, INTEGRAL =      0.01 TIME LEFT: 172799.98
 STEP:  15 TIME =     0.00 SECS, INTEGRAL =      0.01 TIME LEFT: 172799.98

(To convert to Hartree/Bohr^2, multiply by (10^(-21) x N x a0^2)/(4.184 x 627.51) =  0.0642)


           FORCE MATRIX IN MILLIDYNES/ANGSTROM


                  C  1       O  2       O  3       H  4       H  5
 ------------------------------------------------------------------
     C    1  10.068895
     O    2   5.461895   8.399327
     O    3   5.580528   1.719102   8.863151
     H    4   1.000048   3.662684   0.121694   4.389901
     H    5   1.022036   0.156760   3.661326   0.055509   4.239252


          HEAT OF FORMATION =     -60.452218 KCALS/MOLE

          ZERO POINT ENERGY      14.749 KCAL/MOL

         NOTE: SYSTEM IS NOT A GROUND STATE, THEREFORE ZERO POINT
         ENERGY IS NOT MEANINGFULL. ZERO POINT ENERGY PRINTED
         DOES NOT INCLUDE THE  1 IMAGINARY FREQUENCIES


           NORMAL COORDINATE ANALYSIS (Total motion = 1 Angstrom)


   Root No.       1         2         3         4         5         6         7         8

                 1 A       2 A       3 A       4 A       5 A       6 A       7 A       8 A   

                -552.4     429.2     476.2     515.1     814.3    1218.5    1350.1    2734.7
  
           1    0.0067   -0.0153   -0.0036   -0.0775    0.0433   -0.2312   -0.1619   -0.0073
           2    0.0183    0.0012    0.0402   -0.1063    0.0157   -0.1642    0.1969    0.0054
           3    0.0478   -0.0147    0.0304    0.0157   -0.0066    0.0068   -0.0190   -0.0052
           4    0.0087   -0.0091    0.0220   -0.0997   -0.0311    0.2003    0.0606   -0.0020
           5   -0.0003    0.0002   -0.0046    0.1021   -0.0774   -0.0046   -0.0221    0.0053
           6   -0.0249   -0.0348    0.0270    0.0169    0.0186    0.0019    0.0049   -0.0017
           7   -0.0583    0.0218   -0.0051    0.1357   -0.0341   -0.0387    0.0478   -0.0234
           8   -0.0412   -0.0243   -0.0373   -0.0406    0.0395    0.1153   -0.1183    0.0276
           9   -0.0005   -0.0053   -0.0584   -0.0158   -0.0081   -0.0077    0.0219   -0.0274
          10    0.0448    0.0386   -0.0596    0.1934    0.5949    0.2136    0.1910    0.0819
          11    0.0304    0.1726   -0.1197    0.2328    0.3636    0.0238    0.1453   -0.1039
          12   -0.0154    0.5470   -0.2759   -0.2644   -0.1359   -0.0095   -0.0416    0.0279
          13    0.6631   -0.0579   -0.1641    0.1594   -0.0772   -0.0250    0.0173    0.4083
          14    0.4105    0.1966    0.3046    0.0573    0.0516    0.1760   -0.2623   -0.4829
          15   -0.1504    0.2647    0.4124    0.0593    0.0489    0.0205   -0.1578    0.4949


   Root No.       9

                 9 A   

                2779.1
  
           1    0.0066
           2   -0.0092
           3    0.0006
           4    0.0254
           5   -0.0349
           6    0.0078
           7   -0.0047
           8    0.0072
           9   -0.0043
          10   -0.4776
          11    0.6286
          12   -0.1423
          13    0.0694
          14   -0.0805
          15    0.0799


           MASS-WEIGHTED COORDINATE ANALYSIS (NORMAL COORDINATES)


   Root No.       1         2         3         4         5         6         7         8

                 1 A       2 A       3 A       4 A       5 A       6 A       7 A       8 A   

                -552.4     429.2     476.2     515.1     814.3    1218.5    1350.1    2734.7
  
           1    0.0264   -0.0759   -0.0176   -0.2608    0.1786   -0.5774   -0.4971   -0.0301
           2    0.0727    0.0060    0.1943   -0.3577    0.0646   -0.4102    0.6043    0.0224
           3    0.1897   -0.0728    0.1470    0.0529   -0.0274    0.0169   -0.0584   -0.0215
           4    0.0398   -0.0520    0.1225   -0.3870   -0.1478    0.5775    0.2148   -0.0096
           5   -0.0014    0.0010   -0.0255    0.3966   -0.3680   -0.0132   -0.0782    0.0255
           6   -0.1141   -0.1991    0.1503    0.0655    0.0885    0.0054    0.0174   -0.0080
           7   -0.2667    0.1248   -0.0287    0.5267   -0.1621   -0.1115    0.1694   -0.1116
           8   -0.1887   -0.1391   -0.2079   -0.1576    0.1877    0.3324   -0.4193    0.1314
           9   -0.0024   -0.0301   -0.3256   -0.0612   -0.0387   -0.0221    0.0777   -0.1305
          10    0.0514    0.0553   -0.0835    0.1885    0.7103    0.1546    0.1698    0.0980
          11    0.0350    0.2476   -0.1675    0.2268    0.4341    0.0172    0.1292   -0.1244
          12   -0.0177    0.7847   -0.3862   -0.2576   -0.1623   -0.0069   -0.0370    0.0334
          13    0.7618   -0.0831   -0.2297    0.1553   -0.0921   -0.0181    0.0154    0.4888
          14    0.4716    0.2820    0.4264    0.0559    0.0616    0.1274   -0.2333   -0.5782
          15   -0.1728    0.3797    0.5772    0.0578    0.0584    0.0148   -0.1403    0.5925


   Root No.       9

                 9 A   

                2779.1
  
           1    0.0274
           2   -0.0380
           3    0.0025
           4    0.1216
           5   -0.1666
           6    0.0374
           7   -0.0224
           8    0.0344
           9   -0.0208
          10   -0.5730
          11    0.7542
          12   -0.1707
          13    0.0832
          14   -0.0966
          15    0.0959


          DESCRIPTION OF VIBRATIONS


 VIBRATION          1    1A          ATOM PAIR     ENERGY CONTRIBUTION    RADIAL
 FREQUENCY          -552.37         O 3 -- H 5        -109.4% (-93.2%)      0.3%
 TRANSITION DIPOLE   1.0874         C 1 -- O 3          -5.6% (-21.1%)     12.4%
 TRAVEL (Ang.)       0.3672         O 2 -- O 3          -1.6% (-11.4%)     14.1%
 REDUCED MASS        0.9055         O 2 -- H 4          -1.3% (-10.3%)      0.4%
 EFFECTIVE MASS      1.6821
 FORCE CONSTANT     -0.1628

 VIBRATION          2    2A          ATOM PAIR     ENERGY CONTRIBUTION    RADIAL
 FREQUENCY           429.17         O 2 -- H 4         +50.4% ( 85.8%)      0.1%
 TRANSITION DIPOLE   1.3741         O 3 -- H 5         +20.8% ( 55.1%)      0.4%
 TRAVEL (Ang.)       0.5248         C 1 -- O 3         +14.3% ( 45.7%)     64.4%
 REDUCED MASS        0.5705         O 2 -- O 3         +12.4% ( 42.6%)     63.9%
 EFFECTIVE MASS      3.4049
 FORCE CONSTANT      0.0619

 VIBRATION          3    3A          ATOM PAIR     ENERGY CONTRIBUTION    RADIAL
 FREQUENCY           476.19         O 3 -- H 5         +45.3% ( 88.6%)      2.9%
 TRANSITION DIPOLE   0.9691         C 1 -- O 3         +23.1% ( 63.2%)     37.0%
 TRAVEL (Ang.)       0.4246         C 1 -- O 2         +12.2% ( 45.9%)     28.9%
 REDUCED MASS        0.7856         O 2 -- H 4         +12.2% ( 45.9%)      2.0%
 EFFECTIVE MASS      5.6811
 FORCE CONSTANT      0.1050

 VIBRATION          4    4A          ATOM PAIR     ENERGY CONTRIBUTION    RADIAL
 FREQUENCY           515.07         O 2 -- O 3         +39.7% (129.4%)     98.1%
 TRANSITION DIPOLE   0.4456         C 1 -- O 2         +22.7% ( 97.8%)      2.7%
 TRAVEL (Ang.)       0.1921         C 1 -- O 3         +16.7% ( 83.8%)      0.6%
 REDUCED MASS        3.5482         O 2 -- H 4         +12.9% ( 73.6%)     28.1%
 EFFECTIVE MASS     17.7257
 FORCE CONSTANT      0.5546

 VIBRATION          5    5A          ATOM PAIR     ENERGY CONTRIBUTION    RADIAL
 FREQUENCY           814.26         O 2 -- H 4         +62.0% ( 94.4%)      6.9%
 TRANSITION DIPOLE   0.8206         C 1 -- O 2         +12.9% ( 43.1%)     34.7%
 TRAVEL (Ang.)       0.2825         O 2 -- O 3         +11.0% ( 39.7%)     34.2%
 REDUCED MASS        1.0378         C 1 -- O 3          +8.5% ( 34.9%)     38.8%
 EFFECTIVE MASS      4.6884
 FORCE CONSTANT      0.4054

 VIBRATION          6    6A          ATOM PAIR     ENERGY CONTRIBUTION    RADIAL
 FREQUENCY          1218.46         C 1 -- O 2         +44.7% ( 88.2%)     89.4%
 TRANSITION DIPOLE   3.3232         C 1 -- O 3         +25.3% ( 66.4%)     39.9%
 TRAVEL (Ang.)       0.1047         O 2 -- O 3         +16.4% ( 53.4%)     97.6%
 REDUCED MASS        5.0517         O 2 -- H 4          +9.5% ( 40.6%)     30.3%
 EFFECTIVE MASS     13.5978
 FORCE CONSTANT      4.4189

 VIBRATION          7    7A          ATOM PAIR     ENERGY CONTRIBUTION    RADIAL
 FREQUENCY          1350.14         C 1 -- O 3         +49.0% ( 85.7%)     92.7%
 TRANSITION DIPOLE   4.3250         C 1 -- O 2         +32.0% ( 69.3%)     51.8%
 TRAVEL (Ang.)       0.0969         O 3 -- H 5          +8.3% ( 35.4%)     99.5%
 REDUCED MASS        5.3140         O 2 -- O 3          +7.3% ( 33.1%)     21.1%
 EFFECTIVE MASS     11.2131
 FORCE CONSTANT      5.7073

 VIBRATION          8    8A          ATOM PAIR     ENERGY CONTRIBUTION    RADIAL
 FREQUENCY          2734.66         O 3 -- H 5         +96.3% ( 98.5%)     98.7%
 TRANSITION DIPOLE   1.9692         O 2 -- H 4          +2.7% ( 16.6%)     98.9%
 TRAVEL (Ang.)       0.1658         O 2 -- O 3          +0.5% (  7.1%)     57.0%
 REDUCED MASS        0.8969         C 1 -- O 3          +0.4% (  6.7%)     55.0%
 EFFECTIVE MASS      1.3426
 FORCE CONSTANT      3.9520

 VIBRATION          9    9A          ATOM PAIR     ENERGY CONTRIBUTION    RADIAL
 FREQUENCY          2779.15         O 2 -- H 4         +96.4% ( 98.3%)     98.4%
 TRANSITION DIPOLE   1.3356         O 3 -- H 5          +2.6% ( 16.3%)     97.1%
 TRAVEL (Ang.)       0.1645         O 2 -- O 3          +0.5% (  6.7%)     84.7%
 REDUCED MASS        0.8965         C 1 -- O 2          +0.4% (  6.2%)     33.3%
 EFFECTIVE MASS      1.3372
 FORCE CONSTANT      4.0794

      SYMMETRY NUMBER FOR POINT-GROUP C1  =  1


          SYSTEM IS A GROUND STATE


 title
 title


          MOLECULE IS NOT LINEAR

          THERE ARE  9 GENUINE VIBRATIONS IN THIS SYSTEM
          THIS THERMODYNAMICS CALCULATION IS LIMITED TO
          MOLECULES WHICH HAVE NO INTERNAL ROTATIONS




                    CALCULATED THERMODYNAMIC PROPERTIES
                                          *
   TEMP. (K)   PARTITION FUNCTION   H.O.F.    ENTHALPY  HEAT CAPACITY ENTROPY
                                   KCAL/MOL   CAL/MOLE    CAL/K/MOL  CAL/K/MOL


 298.00  VIB.     0.1527D+01                   642.1914     6.0043     2.9961
         ROT.     0.8609D+04                   888.2813     2.9808    20.9860
         INT.     0.1314D+05                  1530.4727     8.9851    23.9821
         TRA.     0.3019D+27                  1480.4688     4.9680    37.4027
         TOT.                      -60.452    3010.9415    13.9531    61.3848

   *: NOTE: HEATS OF FORMATION ARE RELATIVE TO THE
            ELEMENTS IN THEIR STANDARD STATE AT 298K
              (=  Standard Enthalpy of Formation).

            Hvib:  Zero-point energy is not included.
                   frequencies of less than zero cm-1 are not included.
            Hrot = (3/2)RT
            Htra = (3/2)RT + pV = (5/2)RT

            Heat capacity is Cp, not Cv

          For more information, see: HTTP://OpenMOPAC.net/Manual/thermochemistry.html


           FORCE CONSTANT IN CARTESIAN COORDINATES (Millidynes/A)

    ATOM   CHEMICAL       X               Y               Z
   NUMBER   SYMBOL  FORCE CONSTANT  FORCE CONSTANT  FORCE CONSTANT

      1       C        7.063308        6.893653        0.056323
      2       O        7.086177        3.414621        0.253948
      3       O        2.261458        6.174986        1.593320
      4       H        1.805899        2.788549        0.248351
      5       H        1.003366        1.595358        1.680048

 **********************
 *                    *
 * JOB ENDED NORMALLY *
 *                    *
 **********************



 TOTAL JOB TIME:             0.02 SECONDS

 == MOPAC DONE ==
